/*--------------------------------*- C++ -*----------------------------------*\
| =========                 |                                                 |
| \\      /  F ield         | OpenFOAM: The Open Source CFD Toolbox           |
|  \\    /   O peration     | Version:  2106                                  |
|   \\  /    A nd           | Website:  www.openfoam.com                      |
|    \\/     M anipulation  |                                                 |
\*---------------------------------------------------------------------------*/
FoamFile
{
    version     2.0;
    format      ascii;
    arch        "LSB;label=32;scalar=64";
    class       volScalarField;
    location    "0.345";
    object      p;
}
// * * * * * * * * * * * * * * * * * * * * * * * * * * * * * * * * * * * * * //

dimensions      [0 2 -2 0 0 0 0];

internalField   nonuniform List<scalar> 
11200
(
150.12656166
147.197959623
146.084107648
145.556774701
145.189442831
144.894661991
144.633015531
144.384474318
144.139953148
143.894882399
143.646564955
143.393246116
143.133693858
142.866972563
142.592315308
142.309048612
142.016546597
141.714203218
141.401419597
141.077607583
140.742143443
140.394378122
140.033653333
139.659301274
139.270636415
138.866957494
138.447548329
138.011678495
137.55860406
137.08756821
136.597801823
136.088523993
135.558942205
135.008252491
134.435640214
133.840281005
133.221341079
132.577976835
131.909335786
131.214556721
130.492770092
129.743098156
128.964655212
128.156547658
127.317873941
126.447724302
125.545180313
124.609314188
123.63918761
122.633850213
121.592337442
120.513667708
119.396838694
118.240822527
117.044559618
115.806950827
114.526847548
113.203039212
111.834237493
110.41905634
108.955987248
107.443367197
105.879338905
104.26180176
102.588345772
100.85616573
99.0619510358
97.2017417802
95.2707338069
93.2630123173
91.171188208
88.9859019358
86.694954857
84.2821605899
81.7254332387
78.993112597
76.0375985292
72.7863138533
69.085528707
64.3222195133
148.333519926
146.975345468
146.184372835
145.684356773
145.293366349
144.969481304
144.684957413
144.420352252
144.164861384
143.912336432
143.658950116
143.40218884
143.140315535
142.872053691
142.596402814
142.312528015
142.019691834
141.717211389
141.40442816
141.080680273
140.745317561
140.397664518
140.03707749
139.662888381
139.274401237
138.870909067
138.451692859
138.016020359
137.563146341
137.092313011
136.602750252
136.093675586
135.564294621
135.013807023
134.441400164
133.846249705
133.227521468
132.584371934
131.91594859
131.2213903
130.499827664
129.750383165
128.972171417
128.164299244
127.325865657
126.455961646
125.553669736
124.618063335
123.648205661
122.643148251
121.601928934
120.523569085
119.40707006
118.25140857
117.055530721
115.81834444
114.538709869
113.21542729
111.847221908
110.432724583
108.970448292
107.458757671
105.895829021
104.279599369
102.607700976
100.87739344
99.085461064
97.2280664871
95.3005703436
93.2972878623
91.2111501666
89.0332009939
86.7518929208
84.3520900734
81.8133972828
79.1073062278
76.1930187596
73.0127011404
69.4635644537
65.3507581028
147.338329686
146.684128895
146.131772004
145.694152526
145.322526564
145.000422352
144.71131978
144.441083036
144.180617168
143.924133342
143.667746602
143.408775243
143.145307198
142.875915449
142.599478856
142.315068729
142.021875372
141.719160153
141.406224719
141.082392157
140.747000424
140.399409957
140.038876775
139.664747263
139.276329375
138.872913562
138.453778504
138.018190865
137.565405108
137.094663664
136.605197301
136.096225826
135.566958223
135.016586932
134.444294278
133.849258345
133.230646035
132.58761439
131.919311736
131.224877787
130.503443987
129.754133757
128.976062807
128.16833927
127.330063715
126.460329041
125.558220118
124.62281319
123.653174967
122.648361278
121.607415214
120.529364628
119.413218782
118.257964058
117.062558391
115.825924167
114.546939223
113.224425697
111.857135683
110.443733325
108.982771609
107.472663739
105.911645625
104.297748771
102.628735737
100.90201267
99.1145378525
97.2627128001
95.3422234862
93.3478313946
91.2730869432
89.1099274531
86.8482582749
84.4751638036
81.9739234099
79.322677392
76.4934529214
73.4546358305
70.1702498871
66.6172769726
146.788568462
146.425186741
146.025287527
145.656295271
145.318676188
145.010570881
144.725204314
144.454496893
144.192121304
143.933450615
143.675066825
143.414438393
143.149665467
142.879280733
142.602108053
142.31716484
142.023594708
141.720621414
141.407517795
141.083583889
140.748128774
140.40046231
140.039943325
139.66584871
139.277467793
138.874092896
138.455002451
138.019461883
137.566724531
137.096031805
136.6066133
136.097687017
135.568460239
135.018131263
134.44588969
133.850910125
133.232360437
132.589398418
131.921171403
131.226819579
130.505475186
129.756262653
128.978299128
128.17069461
127.332552009
126.462967106
125.561028339
124.625816319
123.656403101
122.651851029
121.61121102
120.533520471
119.41780036
118.263051411
117.068249219
115.832338064
114.554222782
113.232758874
111.866739302
110.454878592
108.995795358
107.487991675
105.929806759
104.31938132
102.654613925
100.933105943
99.1520820747
97.308290309
95.3978776808
93.4162343753
91.3578034707
89.2158556791
86.9821596153
84.6466737027
82.197309396
79.6199690354
76.8999081236
74.0274206059
71.0061056384
67.8731432222
146.454520479
146.222724617
145.921311022
145.610332101
145.305490118
145.013463747
144.734484825
144.465355183
144.202391275
143.942303015
143.682330024
143.420234894
143.154225089
142.882851495
142.604917365
142.319405666
142.025423708
141.722162224
141.40886587
141.084812022
140.749295805
140.401620925
140.041091073
139.666995701
139.2786377
138.875300771
138.456258109
138.020772717
137.568096596
137.097470599
136.608124391
136.099276653
135.570135168
135.019896593
134.447746824
133.852862204
133.23440822
132.591542874
131.923416831
131.229170688
130.507939183
129.758849077
128.981019961
128.173564602
127.335589181
126.466193339
125.564470136
124.629505787
123.660379081
122.65616057
121.615911734
120.538682611
119.423509567
118.269412099
117.075388575
115.840410539
114.563415247
113.243299186
111.878904626
110.469012248
109.012319206
107.507413878
105.952758995
104.346659994
102.687223266
100.97230685
99.1994632227
97.3658705029
95.468249271
93.5027654147
91.4649222976
89.349455476
87.1502567394
84.8604076753
82.4724878373
79.9794883574
77.3772133188
74.670105269
71.8795245176
69.0561661143
146.251127943
146.07522552
145.834029628
145.566702101
145.289512804
145.012871682
144.74117876
144.4746736
144.211904716
143.95089209
143.689600853
143.426163973
143.158955976
142.886586005
142.607861118
142.321743557
142.027311228
141.723724686
141.410201163
141.085994852
140.750382361
140.402651839
140.042093921
139.667998917
139.279656289
138.876345315
138.457336535
138.0218909
137.5692589
137.098680142
136.609383294
136.100586256
135.571496141
135.021309769
134.44921376
133.854385437
133.23599333
132.593197263
131.925148589
131.230991737
130.509862321
129.760887823
128.983189916
128.17588395
127.338079509
126.468880772
125.567386426
124.63268957
123.663877476
122.660031091
121.62022368
120.543520078
119.428974703
118.275629079
117.082508641
115.84861937
114.572942803
113.254426454
111.89197987
110.484453242
109.030630842
107.529220311
105.978838101
104.377968058
102.72494326
101.017913866
99.2548089825
97.4332949704
95.5507319953
93.6041343796
91.5901461099
89.5050556893
87.3448969997
85.105729049
82.7842671712
80.3791598594
77.8934749243
75.339366707
72.7437835148
70.1538208131
146.128011103
145.972403141
145.766100301
145.529536661
145.274059525
145.010777773
144.746162043
144.482650761
144.220514761
143.958926267
143.696551294
143.431913357
143.163582683
142.890250708
142.610745224
142.324018601
142.029125863
141.725201141
141.411436382
141.087063664
140.75134117
140.403542497
140.042948843
139.668842704
139.28050525
138.877210775
138.458226969
138.022812598
137.570216628
137.099677807
136.610424418
136.101674296
135.57263488
135.022503675
134.450468538
133.855707706
133.237390138
132.594676455
131.926718941
131.232661268
130.511638928
129.762783219
128.985220235
128.178069608
127.340445689
126.471457954
125.57021148
124.635807173
123.667341772
122.663907627
121.624592126
120.548477465
119.43463927
118.28214491
117.090051028
115.857400353
114.583217506
113.266507543
111.90624459
110.501368854
109.050779164
107.553315512
106.007748809
104.412766307
102.766956403
101.068789952
99.3166026297
97.5085806369
95.6427543236
93.7170093357
91.7291315397
89.6769150528
87.5583806469
85.3721958919
83.1184297418
80.7998398514
78.4239751399
76.0064339635
73.5740920814
71.1663044688
146.053931359
145.903920951
145.717164434
145.50105777
145.261350092
145.008526989
144.749887851
144.489147544
144.227778699
143.965854978
143.702635564
143.436997049
143.167698919
142.893519917
142.613316501
142.326038779
142.030725207
141.726488422
141.412498846
141.087969289
140.752141785
140.404277006
140.043646036
139.669523345
139.281185243
138.877901022
138.458935611
138.023545728
137.570978982
137.100473297
136.611256622
136.102546655
135.57355106
135.023467566
134.451484231
133.85677976
133.238523971
132.595877946
131.927994935
131.2340215
130.513099315
129.764361843
128.986935889
128.179944576
127.342506948
126.473738329
125.572750909
124.638654154
123.670555201
122.667559142
121.628769352
120.55328677
119.440209724
118.28863331
117.097648275
115.866339677
114.593785078
113.279049915
111.921187388
110.51922832
109.072181651
107.579027774
106.038712503
104.450138706
102.81216202
101.123587123
99.3831685521
97.5896204225
95.7416413243
93.8379663291
91.8774631793
89.8593021416
87.7832375524
85.6500818626
83.4624486543
81.2258713597
78.9503862741
76.6525980325
74.3571865396
72.0961585892
146.011654904
145.862206984
145.685790652
145.482051423
145.252517498
145.006807691
144.752446146
144.493806128
144.233097683
143.971001848
143.707202761
143.440842577
143.170829768
142.896015667
142.615283508
142.327585066
142.031948256
141.72747051
141.413306459
141.088654521
140.752744534
140.404827286
140.044166145
139.670030559
139.281689372
138.878411876
138.45945989
138.024088384
137.571544001
137.101064091
136.611876347
136.103198469
135.574238335
135.024194049
134.452254263
133.857598499
133.239397675
132.596814654
131.929005062
131.235117622
130.514292758
129.765667527
128.988373764
128.181538997
127.344287328
126.475740276
125.575017597
124.641238003
123.673519888
122.670981963
121.632743835
120.557926552
119.445652985
118.295047974
117.105238576
115.875353234
114.604521948
113.291875812
111.936546127
110.537664148
109.094358516
107.605755334
106.070979045
104.489152774
102.85940331
101.180870317
99.4527231903
97.6741907056
95.8446098925
93.963507922
92.0307300121
90.0466431127
88.0124424126
85.9306194496
83.8056207432
81.6447416343
79.4592323004
77.2655041922
75.085601513
72.9457026318
145.992378356
145.842500282
145.67053665
145.472600279
145.248037824
145.005917462
144.753780913
144.49627051
144.235941869
143.973779168
143.709687176
143.442950169
143.172558558
142.897404844
142.616388342
142.328462834
142.032651225
141.728043104
141.413784758
141.089066911
140.753112839
140.405167991
140.044491487
139.670349464
139.282009432
138.878737951
138.459795891
138.024437507
137.571909018
137.101447652
136.612281056
136.103627178
135.574694267
135.024680966
134.452776674
133.858161886
133.240008687
132.597481274
131.929736451
131.235924249
130.515189565
129.766671829
128.989506151
128.182824361
127.345755907
126.477428804
125.576970666
124.643509748
123.676176021
122.674102278
121.636425261
120.562286801
119.450835
118.30122528
117.112621945
115.884199046
114.615142164
113.304649069
111.951932392
110.556222975
109.116769214
107.632844385
106.103752098
104.528834583
102.907485815
101.239171496
99.5234588308
97.7600612539
95.9489040215
94.0902247657
92.1847156493
90.2337460207
88.2396560313
86.2061992993
84.1390836219
82.046653947
79.9406337112
77.8367770764
75.7547740649
73.7165485553
145.992380819
145.842516226
145.670563557
145.47263644
145.248082476
145.005969764
144.753839944
144.496335435
144.236011984
143.973853887
143.709766021
143.44303277
143.172644637
142.897494214
142.616480885
142.328558504
142.032750034
141.728145121
141.413890106
141.08917577
140.753225451
140.405284675
140.044612649
139.67047562
139.282141277
138.878876215
138.459941484
138.024591553
137.572072871
137.101622851
136.61246959
136.103831483
135.574917307
135.024926345
134.453048758
133.858465969
133.240351158
132.597869895
131.930180799
131.236436295
130.515783364
129.767364425
128.990318317
128.183781356
127.3468884
126.478774034
125.578573832
124.64542572
123.67847141
122.676857943
121.639739353
120.566278447
119.45564878
118.307036739
117.119643969
115.89268988
114.625414796
113.317083264
111.966989149
110.574463439
109.138871977
107.659632943
106.136225172
104.568202811
102.955215802
101.297036791
99.5935984718
97.8450503537
96.0518380653
94.2148117747
92.3354010116
90.4159064023
88.459440862
86.4706271516
84.4559810639
82.4244041553
80.3876823685
78.3608332798
76.3617593813
74.4095535673
146.011662349
145.862255195
145.685871978
145.482160651
145.252652304
145.006965366
144.752623879
144.494001439
144.233308468
143.971226355
143.707439573
143.44109059
143.171088162
142.896283879
142.615561193
142.327872084
142.032244656
141.727776504
141.413622418
141.088980981
140.753082222
140.405177144
140.04452936
139.670408692
139.282084405
138.878825994
138.459895776
138.024549312
137.572033918
137.101587847
136.612439804
136.103808823
135.574904353
135.024926424
134.453066027
133.858505575
133.240419416
132.597974535
131.930331222
131.2366439
130.516062012
129.767730997
128.990793333
128.184389739
127.347660414
126.479746426
125.579791218
124.646942255
123.680352823
122.679183986
121.642606807
120.56980475
119.459976353
118.312338368
117.126129117
115.900612737
114.635083439
113.328871301
111.981348516
110.591937847
109.160126508
107.6854678
106.167605516
104.606291447
103.001410874
101.353019723
99.6614044625
97.927149397
96.1511428588
94.334760456
92.4799782867
90.5894807994
88.6672457101
86.7185305852
84.7503267154
82.7717873614
80.7945856169
78.8331258953
76.9041249579
75.025022858
146.05394398
145.904002562
145.717301836
145.501241906
145.261576886
145.008791759
144.750185826
144.489474555
144.228131233
143.966230128
143.703030991
143.437410936
143.16812992
142.893967104
142.613779317
142.32651701
142.031218947
141.726998032
141.413024948
141.088512785
140.7527039
140.40485931
140.044250415
139.67015246
139.281841987
138.878589143
138.459659562
138.02431089
137.571791843
137.101341822
136.612190447
136.103557559
135.57465337
135.024678702
134.452825406
133.858276878
133.240208624
132.597788988
131.9301799
131.23653774
130.516014335
129.767758005
128.990914739
128.184629495
127.348047632
126.480316465
125.580587011
124.648015926
123.681767635
122.681016695
121.644950504
120.572772355
119.463704765
118.316993541
117.131912051
115.907766952
114.643903717
113.339714431
111.994645308
110.608209839
109.1799985
107.709698741
106.197110407
104.642173312
103.045001631
101.405909099
99.725449846
98.0044833116
96.2443303683
94.4468052012
92.6143625839
90.7502638715
88.8588177274
86.9456260447
85.0179073422
83.0848336579
81.1578455807
79.250889051
77.3800960082
75.5623803562
146.128029287
145.972520307
145.766296861
145.529799111
145.274381713
145.011152836
144.746583123
144.483111954
144.221011145
143.959453802
143.697106749
143.432494233
143.164187132
142.890877459
142.611393523
142.324688161
142.029816808
141.725913961
141.412171921
141.087823131
140.752126217
140.404355314
140.043792163
139.669719991
139.281420542
138.878169145
138.459234508
138.023876688
137.571346169
137.100883683
136.611719932
136.10307566
135.574161886
135.024180236
134.452323396
133.857775689
133.239713719
132.597307115
131.929719376
131.236108766
130.515629371
129.767432206
128.990666552
128.18448133
127.348026722
126.480455895
125.580926961
124.648605182
123.682665416
122.682294864
121.646696194
120.575091208
119.466724836
118.320869942
117.1368327
115.913959184
114.651642577
113.349332525
112.006545119
110.622875232
109.198013969
107.73176546
106.224068518
104.675022981
103.08492059
101.454300634
99.7839977814
98.0751950195
96.3295036056
94.549065446
92.7366786482
90.895942974
89.0314398409
87.1489433466
85.2556825411
83.3606410858
81.4748981785
79.6120227659
77.7880249521
76.0203135464
146.251152375
146.075381956
145.83429055
145.567048649
145.28993626
145.013362688
144.741728228
144.475273859
144.212549459
143.951576187
143.690320236
143.426915511
143.159737366
142.887395669
142.608698122
142.322607532
142.028202281
141.724643334
141.411148276
141.086971626
140.751390271
140.403692947
140.043172796
139.669121482
139.280827159
138.877570212
138.45862276
138.023247407
137.570696567
137.100212375
136.611026633
136.102360999
135.5734273
135.023427952
134.451556458
133.856997998
133.238930124
132.596523579
131.928943222
131.235349004
130.514897131
129.766741146
128.990033387
128.18392644
127.347574885
126.4801372
125.580777929
124.648670122
123.682998091
122.682960495
121.647773842
120.57667664
119.468934069
118.323843294
117.140740034
115.919005795
114.658076676
113.35745366
112.016714579
110.635528804
109.213674257
107.751057813
106.247740876
104.70396987
103.120211425
101.497193946
99.835960537
98.1379325884
96.4049847713
94.6395301005
92.8446235488
91.0240822579
89.1826297773
87.3260568035
85.4614243543
83.5973258922
81.7442755854
79.9153537443
78.1265909465
76.3966607352
146.454551867
146.222925204
145.921642806
145.610769756
145.306021676
145.01407693
144.735168165
144.466099247
144.203188439
143.94314716
143.683216344
143.421159732
143.155185797
142.883846325
142.605945371
142.320466614
142.026517946
141.723290521
141.4100292
141.086011599
140.750533343
140.402897737
140.042409304
139.668368803
139.280069639
138.87679725
138.457827217
138.022424582
137.569843578
137.099327657
136.610109626
136.101411968
135.572447259
135.022418646
134.450520421
133.855938643
133.23785187
132.595431949
131.927844945
131.234252103
130.513811216
129.765677871
128.989006961
128.182954265
127.346678265
126.479342174
125.580116242
124.648180395
123.682727237
122.682965442
121.648123728
120.577455271
119.47024306
118.325805645
117.143504628
115.922752537
114.663021914
113.363857749
112.024891083
110.645854465
109.226601211
107.767127721
106.267600211
104.728386262
103.150092278
101.533607715
99.8801559055
98.1913531552
96.4692781529
94.7165486291
92.936406277
91.1328087604
89.310530202
87.4752676367
85.633772503
83.7940389338
81.9656883812
80.1608752358
78.395115085
76.6882631469
146.788606863
146.425435182
146.025692709
145.656824432
145.319313419
145.011300502
144.726012374
144.455372252
144.193055115
143.934435883
143.676098126
143.415511663
143.150777855
142.880430506
142.60329456
142.318388516
142.024857096
141.721925083
141.408865855
141.084980383
140.749582974
140.401990086
140.041517636
139.667472929
139.279155784
138.875855903
138.456851998
138.021411374
137.56878981
137.098231813
136.608970997
136.100230502
135.571223408
135.021153278
134.449214847
133.854594799
133.236472604
132.594021119
131.92640759
131.232794894
130.512342818
129.764208554
128.987549115
128.181522901
127.345291544
126.478022066
125.578889357
124.647078998
123.681790575
122.682241075
121.647669073
120.577339678
119.470550423
118.326637374
117.144983024
115.925025227
114.666268651
113.368295524
112.030780589
110.65350868
109.23639492
107.779508398
106.283100228
104.747636414
103.173836031
101.562715681
99.9156401327
98.2343792274
96.5211705263
94.7787862048
93.0106020302
91.2206645591
89.4137500195
87.5954099165
85.7720086678
83.9507634638
82.1399769897
80.3500306933
78.5941401482
76.8909584602
147.33837996
146.684439384
146.132260626
145.694778537
145.323270383
145.001265018
144.712245126
144.442078457
144.181672753
143.925241271
143.668900764
143.409970939
143.146540914
142.877184681
142.600782016
142.31640519
142.023245823
141.720567443
141.40767414
141.083890474
140.7485483
140.400977409
140.040498833
139.666432336
139.278082496
138.874742236
138.455692819
138.020203404
137.567531248
137.096921847
136.607609548
136.098818114
135.569761207
135.019642947
134.447658573
133.852994913
133.234830551
132.592339606
131.924690234
131.231045933
130.510566975
129.762412724
128.985742115
128.179715667
127.343497578
126.476257978
125.577175477
124.645440053
123.68025644
122.680848028
121.646461469
120.576371511
119.469887065
118.326357997
117.145183323
115.925820347
114.667795829
113.37072029
112.034302014
110.658365516
109.242872809
107.787948321
106.293908005
104.761293185
103.190909242
101.583869859
99.9416465907
98.2661231467
96.559652623
94.8251208078
93.0660012187
91.2864037814
89.491101479
87.6855232665
85.8756864929
84.0679792151
82.2690623331
80.4864953949
78.7273925747
77.0004491261
148.333617543
146.975801339
146.185053889
145.685210298
145.294369323
144.970612977
144.686200783
144.421694194
144.166291594
143.913846742
143.660534018
143.403841096
143.142031784
142.873830051
142.598235491
142.314412923
142.021624074
141.719184418
141.406436723
141.082732371
140.747411812
140.399825611
140.039321837
139.665217068
139.276819662
138.873425914
138.454318714
138.018766211
137.566027339
137.095349119
136.605966517
136.097103629
135.567974397
135.017783234
134.445725753
133.850989701
133.232756511
132.590199251
131.922486176
131.228781703
130.508247234
129.760042653
128.983327928
128.177264971
127.341019681
126.47376427
125.574679897
124.64295961
123.677811937
122.678464776
121.64416994
120.574208469
119.46789691
118.324594433
117.143711291
115.924718603
114.667160376
113.370665699
112.034965675
110.659912089
109.245499153
107.79188897
106.299441049
104.768746585
103.200667504
101.59638091
99.9574283262
98.2857675616
96.5838249928
94.8545749652
93.101565404
91.3289645146
89.5415772266
87.744821011
85.9445930154
84.1467600254
82.3568517583
80.5796311415
78.8099010323
77.0181542395
150.126726056
147.198627943
146.085099286
145.55802759
145.190926835
144.896352526
144.634894019
144.386527148
144.14217033
143.897256765
143.64909165
143.395922319
143.136518664
142.869947037
142.595442608
142.312334056
142.01999757
141.717828507
141.405224313
141.081577564
140.746282914
140.398700519
140.038161474
139.664000504
139.275535501
138.872067203
138.452881731
138.017254033
137.564441708
137.093690275
136.604234731
136.095299325
135.566098076
135.015835436
134.443707022
133.848900296
133.230595526
132.587966812
131.920183019
131.226408901
130.505806273
129.757535627
128.980757656
128.174635078
127.338334713
126.471029874
125.571903083
124.640148985
123.674977967
122.67562022
121.641330371
120.571392824
119.465128102
118.321900145
117.1411249
115.922280132
114.664917301
113.368675573
112.033297788
110.658649413
109.244740806
107.791753176
106.30006859
104.770304697
103.203354171
101.600429238
99.9631112374
98.2934075189
96.5938149348
94.8673389407
93.117584712
91.3487892549
89.5658417485
87.7742610057
85.9800931965
84.1898355495
82.4099090618
80.6450974937
78.8749417441
76.9749813184
56.9281198083
53.375992891
50.9845439834
49.027124205
47.355094954
45.898288556
44.612722136
43.4686884675
42.4445115005
41.5234398167
40.6920607654
39.9393619486
39.2561346135
38.6345733196
38.0679928731
37.550619968
37.0774348208
36.6440480419
36.2466026222
35.8816949407
35.546310043
35.2377680536
34.9536794453
34.6919072648
34.4505351968
34.2278401996
34.0222691619
33.8324187024
33.6570177903
33.4949125989
33.3450534633
33.2064833572
33.0783280009
32.959787033
32.8501262658
32.7486708011
32.654798793
32.5679357027
32.4875485146
32.4131396598
32.3442393239
32.280399048
32.221236812
32.1666171907
32.1163302686
32.0699081074
32.0269368599
31.9871287522
31.9502550778
31.9160997434
31.8844577097
31.8551382831
31.8279725157
31.8028174511
31.7794934058
31.7578511652
31.7377584682
31.7190994442
31.7017451285
31.6855835211
31.6705122533
31.6564407521
31.6432817555
31.6309573597
31.6193946189
31.6085272792
31.5982939237
31.5886378387
31.5795072926
31.5708543516
31.5626343865
31.5548098439
31.5473400101
31.5401957672
31.5333383037
31.5267495228
31.5203927243
31.5142492185
31.5082983803
31.5025182771
31.4968907702
31.4913993442
31.4860290889
31.4807669696
31.475599272
31.4705161358
31.465512031
31.460580781
31.4557100194
31.4508887427
31.4461124721
31.4413749633
31.4366678037
31.4319981872
31.427368054
31.4227545431
31.4181491415
31.4135470756
31.4089446591
31.4043380719
31.3997234839
31.3950973954
31.390456424
31.3857972869
31.381116828
31.3764121172
31.3716804429
31.3669192449
31.3621261078
31.3572986456
31.352434513
31.3475313953
31.3425870318
31.3375993557
31.332566519
31.3274871741
31.3223603277
31.3171856234
31.3119632503
31.3066938218
31.3013783462
31.296017819
31.2906115086
31.2851477078
31.2796032383
31.2739038517
31.2686014043
31.2635677656
31.2584529326
31.2533330378
31.2482961136
31.2434095576
31.2387309251
31.234320133
31.2302442185
31.2265700684
31.2233662712
31.2206854107
31.2185620914
31.2169251711
31.216179903
31.2158323248
31.2158155786
31.2155409679
31.2132879916
31.2047306734
31.179620963
31.1161176269
30.9727924423
30.6789822987
30.1293817622
29.1911636116
27.7318034087
25.6588229714
22.9464963505
19.6511316555
15.8912901563
11.634963483
6.60690390149
1.57160643137
60.1094837078
56.056651724
53.3446580689
51.1923016424
49.3903683769
47.840452582
46.4843418437
45.2847999785
44.2156490512
43.2572504195
42.3942588023
41.6143228062
40.9072816128
40.2646386342
39.6791982891
39.1448045661
38.656146697
38.2086109508
37.7981650346
37.4212664538
37.0747885069
36.7559602265
36.4623164811
36.191656778
35.9420104866
35.7116075391
35.4988534951
35.3023083652
35.1206681874
34.9527494467
34.7974753267
34.6538641521
34.5210188315
34.3981184162
34.2844098987
34.1792017267
34.0818579854
33.9917936464
33.9084701812
33.8313930069
33.7601095919
33.6942086434
33.6332958756
33.5769106592
33.5247068231
33.4763764572
33.4316743094
33.3903359006
33.352103252
33.3167352758
33.2840093455
33.2537182763
33.225666747
33.1996709583
33.1755697852
33.1532126658
33.1324576993
33.1131625164
33.0952223553
33.0785261659
33.0629684573
33.0484524293
33.0348964048
33.0222140457
33.010330348
32.9991724678
32.9886754428
32.9787807179
32.9694359855
32.9605872724
32.9521931235
32.9442122853
32.936595548
32.9293304444
32.9223529009
32.9156674879
32.9092272873
32.9030043806
32.8969841019
32.8911450922
32.8854642674
32.8799294704
32.8745185562
32.8692228963
32.864028978
32.8589246552
32.8538918531
32.8489192126
32.8440046921
32.839132897
32.8343053872
32.8295120658
32.8247453831
32.8199973989
32.8152606044
32.8105347586
32.8058176896
32.8011052625
32.7963943307
32.7916811227
32.7869617851
32.7822332438
32.7774918373
32.7727346595
32.767958588
32.7631606654
32.7583381333
32.7534884975
32.7486093152
32.7436980709
32.7387522919
32.7337696532
32.7287476757
32.7236844613
32.7185778082
32.7134267563
32.7082301975
32.7029884882
32.6977022289
32.6923734227
32.6870049635
32.6816020078
32.6761715642
32.6707212041
32.6652786086
32.6598478471
32.6544653465
32.6490015913
32.6435975368
32.6384607768
32.6334439632
32.6286020488
32.624024112
32.6197765255
32.6159364864
32.612586504
32.6098170285
32.6076659798
32.6062487816
32.6055538851
32.6056855466
32.6064477677
32.6075982012
32.6083150524
32.6063550117
32.5964120601
32.5662568546
32.4907886848
32.3236118804
31.9877252823
31.3716911744
30.3396717414
28.7622373716
26.5567362218
23.7093229474
20.2807984195
16.3877186053
12.0134005887
6.89635125603
1.705271062
62.3169185714
58.3834606399
55.5163028943
53.2323777516
51.330431341
49.7039891122
48.2880190231
47.040503756
45.932016781
44.9406914046
44.0496249846
43.2453575553
42.5169267942
41.8552485386
41.2526911572
40.7027713004
40.199929521
39.7393610568
39.3168848671
38.9288411822
38.5720094095
38.2435422331
37.9409114396
37.6618634922
37.4043824277
37.1666588022
36.9470634658
36.7441254084
36.5565126844
36.3830162313
36.2225358325
36.0740681434
35.9366960538
35.8095799603
35.6919494808
35.5830967365
35.4823702934
35.3891700997
35.3029421476
35.2231745172
35.1493928208
35.0811592796
35.0180780475
34.9597696086
34.9056454296
34.8555596467
34.8092697123
34.766471067
34.7268896871
34.6902765919
34.6564020035
34.6250530584
34.5960336027
34.5691611415
34.5442651643
34.5211866659
34.4997812346
34.4798981787
34.461422344
34.4442375985
34.4282354052
34.4133141427
34.3993862461
34.3863567001
34.3741561037
34.3627110616
34.3519538866
34.3418227066
34.3322649278
34.3232240879
34.3146544327
34.3065184625
34.2987580756
34.2913657217
34.2842711337
34.2774731663
34.2709284936
34.2646116074
34.258505104
34.2525869304
34.2468324228
34.2412278141
34.2357513098
34.230392229
34.2251314405
34.2199573236
34.2148632167
34.2098431648
34.2048892653
34.1999830254
34.1951250395
34.1903042683
34.1855124408
34.1807465193
34.175999521
34.1712658476
34.1665401681
34.1618172601
34.1570937998
34.1523660441
34.1476297603
34.1428816982
34.138118289
34.1333365287
34.1285331419
34.1237051476
34.1188498433
34.1139646994
34.1090472563
34.1040950547
34.0991056895
34.0940769777
34.089006587
34.0838927035
34.0787334504
34.0735279641
34.0682755779
34.0629767605
34.0576326997
34.0522459681
34.046820162
34.0413611169
34.0358774063
34.0303784642
34.0248856547
34.0194009902
34.0139386384
34.0085414699
34.0032790911
33.9980586137
33.9930001143
33.9881214159
33.9835956963
33.9794734689
33.9758328775
33.9727711401
33.9704128957
33.9687115261
33.9678767375
33.9679314305
33.9688845004
33.9705919083
33.9726808818
33.9740695081
33.9719473079
33.9599673703
33.9238959936
33.8353652157
33.6432217714
33.2646149695
32.5828174349
31.4599378288
29.7700912658
27.439729084
24.465122809
20.9097478301
16.8868513956
12.3942956346
7.18535433119
1.83670913328
64.121099178
60.3963745658
57.492385492
55.1372171334
53.16715119
51.4828498494
50.0191497283
48.7321673032
47.5906498292
46.5712659584
45.655996053
44.8305436433
44.0833229921
43.4047846222
42.7869481572
42.223067349