/*--------------------------------*- C++ -*----------------------------------*\
| =========                 |                                                 |
| \\      /  F ield         | OpenFOAM: The Open Source CFD Toolbox           |
|  \\    /   O peration     | Version:  2106                                  |
|   \\  /    A nd           | Website:  www.openfoam.com                      |
|    \\/     M anipulation  |                                                 |
\*---------------------------------------------------------------------------*/
FoamFile
{
    version     2.0;
    format      ascii;
    arch        "LSB;label=32;scalar=64";
    class       volScalarField;
    location    "0.02";
    object      p;
}
// * * * * * * * * * * * * * * * * * * * * * * * * * * * * * * * * * * * * * //

dimensions      [0 2 -2 0 0 0 0];

internalField   nonuniform List<scalar> 
11200
(
131.758375443
128.831264709
127.720295903
127.196956857
126.834171038
126.543590547
126.284825373
126.037071711
125.79084688
125.541577411
125.286854656
125.025362925
124.756335287
124.479257478
124.193755908
123.899376023
123.59561261
123.281975333
122.957925665
122.622884741
122.276252021
121.917384844
121.545618072
121.160272143
120.760651865
120.346047477
119.91573561
119.46897967
119.005030543
118.523127623
118.022499164
117.502362102
116.961922484
116.40037582
115.816907366
115.210692422
114.580896677
113.926676547
113.247179512
112.541544426
111.808901811
111.048374074
110.259075638
109.44011298
108.59058455
107.709580538
106.796182448
105.849462406
104.868482098
103.852291228
102.799925379
101.710403135
100.582722324
99.4158551664
98.2087420489
96.9602836851
95.669331264
94.3346740488
92.9550237012
91.5289944475
90.0550782029
88.5316129307
86.9567423174
85.3283677696
83.6440798283
81.9010733562
80.0960387918
78.225017835
76.2832102871
74.2647242757
72.1622298863
69.9662743933
67.6646816302
65.2413206856
62.6741663966
59.9316982976
56.966886694
53.7090140379
50.0070067072
45.2316045325
129.964320261
128.607151285
127.817538683
127.319617812
126.931404614
126.61041804
126.328134453
126.064364892
125.807795781
125.552085276
125.293491821
125.029774018
124.759554174
124.481918748
124.196149017
123.901665615
123.597948876
123.284445938
122.960576543
122.62573862
122.279300758
121.920622602
121.549045389
121.163889668
120.764459821
120.350045526
119.919922428
119.473353363
119.009593235
118.527882488
118.027449297
117.507510399
116.967271748
116.405928812
115.822666818
115.21666107
114.587077286
113.933071934
113.253792574
112.548378194
111.815959502
111.055659151
110.26659189
109.447864625
108.598576369
107.717818046
106.8046721
105.858211858
104.877500536
103.861589762
102.809517514
101.720305355
100.592954798
99.4264426205
98.219714851
96.9716791836
95.6811954583
94.3470637317
92.9680092188
91.5426631687
90.0695391152
88.547002604
86.9732287057
85.3461484716
83.6633936434
81.9222316601
80.1194436571
78.2511889066
76.3128226081
74.2986420725
72.201537295
70.01258225
67.7201759343
65.3091216178
62.7589252437
60.040904634
57.1136500595
53.9178419863
50.3489972646
46.1993716376
128.968134451
128.314813356
127.763142067
127.326585799
126.956664503
126.636619666
126.349309585
126.079881998
125.818664161
125.559557143
125.298640277
125.033403214
124.762221668
124.483991489
124.197893655
123.903277233
123.599501742
123.285979897
122.962118207
122.627306442
122.280916772
121.922300995
121.550793486
121.165712954
120.766363448
120.352035197
119.922005527
119.475538526
119.011880157
118.530270179
118.029937928
117.510100915
116.969965662
116.408727992
115.825573432
115.21967759
114.590206514
113.936317042
113.25715718
112.551866453
111.819576228
111.059409972
110.270483436
109.45190476
108.602774468
107.72218535
106.809222162
105.862961119
104.882468968
103.866801651
102.815002422
101.726099299
100.5991017
99.4329960782
98.2267403304
96.9792567228
95.6894229821
94.3560610395
92.9779227592
91.5536717193
90.0818606508
88.5609019603
86.9890288484
85.364285471
83.6844318489
81.9468620571
80.1485322623
78.2858384001
76.3544568018
74.3491314351
72.2633767806
70.0891092924
67.8161588158
65.4314554052
62.9180441171
60.2536522901
57.4094928197
54.3525221318
51.0456516829
47.4633789867
128.417719826
128.055160132
127.655709233
127.287281055
126.950710653
126.644040749
126.360029482
126.089951954
125.826892449
125.565854656
125.303311057
125.036834615
124.764762791
124.485919821
124.199416101
123.904515007
123.600573862
123.286981602
122.963086863
122.628269699
122.281892692
121.923301129
121.551825078
121.166780124
120.767467878
120.353176488
119.923181332
119.476746452
119.013126131
118.531559818
118.031277893
117.511494876
116.971416498
116.410238497
115.827146419
115.221316095
114.59191399
113.938097514
113.259015387
112.553808002
111.821607782
111.061539493
110.272720482
109.454260845
108.605263526
107.724824312
106.812031621
105.865965989
104.885699411
103.87029427
102.818801691
101.730259299
100.603688228
99.4380892328
98.2324377029
96.9856773672
95.6967123798
94.3643975258
92.9875263097
91.5648152988
90.0948842119
88.5762378231
87.0072167938
85.3859490767
83.7103332924
81.9779709244
80.1860831617
78.3314113759
76.4100932023
74.4175050104
72.348062834
70.1949850443
67.9499640109
65.6028309167
63.1412895086
60.5509112353
57.8164233509
54.9274182467
51.8872516308
48.732418767
128.083305972
127.852087002
127.550954871
127.240283378
126.936087505
126.645028849
126.366991921
126.098225919
125.834495612
125.572128005
125.308210926
125.040561223
124.767578545
124.488070975
124.201106764
123.905907933
123.601786423
123.288056214
122.964097325
122.629259143
122.282888416
121.924321967
121.552884411
121.167887779
120.768631745
120.354403658
119.924478565
119.478119174
119.014575827
118.533087207
118.032878054
117.513167772
116.973162694
116.412059337
115.829044449
115.223294753
114.593977505
113.940250944
113.261264741
112.556160457
111.824071917
111.064125574
110.275440833
109.457130308
108.608300005
107.728049345
106.815470985
105.869651449
104.889669831
103.874596952
102.823494211
101.735411774
100.609386103
99.4444366848
98.2395618551
96.9937335071
95.7058904
94.3749296013
92.9996945386
91.5789563455
90.1114118724
88.5956537749
87.030145867
85.4131960254
83.7429090822
82.0171396234
80.2334362695
78.3889717177
76.48045839
74.5040496109
72.455228605
70.3286993565
68.1183021636
65.8170380443
63.4173659438
60.9121084597
58.2968502838
55.5758547284
52.7706805443
49.9320567157
127.879705812
127.703917191
127.462714997
127.1954518
126.918605199
126.642581073
126.371496398
126.105110674
125.841467936
125.578213696
125.313139611
125.044395639
124.770508381
124.490309366
124.202845204
123.907300986
123.602943572
123.289075747
122.965035426
122.630157159
122.28377485
121.925215948
121.553798756
121.168831047
120.769609215
120.355418044
119.925530785
119.479209109
119.015703327
118.534253014
118.034087105
117.51442356
116.974470074
116.413423841
115.83047077
115.224787584
114.595542073
113.941893379
113.262992362
112.557981851
111.825997324
111.066167293
110.277613686
109.459452226
108.610792754
107.730739526
106.818391487
105.872841407
104.893176455
103.878477567
102.827818389
101.740263963
100.614868859
99.4506746374
98.2467065397
97.0019692629
95.7154416073
94.3860698479
93.012760882
91.594379391
90.129715766
88.6174631954
87.0562377308
85.4445237886
83.7806540064
82.0627778267
80.2888233596
78.4564552417
76.5630309339
74.6055604395
72.5806807045
70.4846698891
68.3135467382
66.0633491446
63.7307682272
61.3144356188
58.8174326708
56.252036346
53.645577484
51.0455473871
127.756431478
127.600365941
127.393629125
127.156777549
126.901301448
126.638316107
126.374041832
126.110475665
125.8474121
125.583653929
125.317676247
125.047988426
124.773277652
124.492425952
124.204476292
123.908587791
123.603995865
123.289980941
122.965849829
122.630923125
122.284520862
121.925961288
121.554556453
121.169609904
120.770415424
120.356256291
119.92640492
119.48012289
119.016660867
118.535258272
118.03514356
117.515534354
116.975637473
116.414648721
115.831755295
115.226135654
114.5969591
113.943385976
113.26456835
112.559650847
111.827770926
111.068059454
110.279641264
109.461635646
108.613156783
107.733314141
106.821212845
105.875953921
104.896633958
103.882345377
102.832176015
101.745208184
100.62051749
99.4571711853
98.2542259599
97.0107250615
95.7256946164
94.3981386887
93.0270318876
91.6113100011
90.1498722353
88.6415614779
87.0851501093
85.4793258141
83.8226767602
82.1136736672
80.3506529709
78.5318025524
76.6551558353
74.7186034053
72.7199388237
70.6569683046
68.5277337781
66.3309366799
64.0667029949
61.7378878562
59.352203675
56.925527493
54.4851661513
52.070928568
127.682198907
127.531188629
127.343522678
127.126694382
126.886586982
126.633730344
126.375202642
126.114294085
125.852005869
125.588032872
125.321420954
125.051002865
124.77562426
124.494227511
124.205863932
123.909677395
123.604880405
123.290731313
122.966517463
122.631544702
122.28512131
121.926557757
121.555160661
121.170229917
120.771056934
120.356923501
119.927101126
119.480850668
119.017422149
118.536054687
118.035976361
117.516404811
116.976547649
116.415603128
115.832760338
115.227197377
114.598083672
113.94458065
113.265841993
112.561014027
111.829236345
111.069642449
110.281360381
109.463513337
108.615220265
107.735596441
106.823753993
105.878802406
104.899849222
103.885999815
102.836357403
101.750023028
100.626095132
99.4636687992
98.2618346157
97.0196771086
95.736272722
94.4106872685
93.0419728921
91.6291632333
90.1712663086
88.6672709245
87.116114423
85.5167017455
83.8678906694
82.1684871934
80.4172488575
78.6128948787
76.7541322543
74.8397090701
72.868513067
70.8397447058
68.753209192
66.6097948643
64.4122304424
62.1662221869
59.8820571535
57.5766913861
55.2752285111
53.010060102
127.63978607
127.488928874
127.311203382
127.106346074
126.876040344
126.630001184
126.375562864
126.116682391
125.855091309
125.591074147
125.324077728
125.053174254
124.777333884
124.495551344
124.206890083
123.910486684
123.605539109
123.291290458
122.967013628
122.632006691
122.285566769
121.926999481
121.555607473
121.170687959
120.771530566
120.357415947
119.927614913
119.481387901
119.017984738
118.536644607
118.036596114
117.51705765
116.977237478
116.416333676
115.833534447
115.22801984
114.598960904
113.945520469
113.266853733
112.562108901
111.830427872
111.070946964
110.282797674
109.465107423
108.617000328
107.737597972
106.826020176
105.881385737
104.902813146
103.889421235
102.840329751
101.754659827
100.631534343
99.470078115
98.2694179381
97.0286824944
95.747002049
94.4235078394
93.0573312897
91.6476026471
90.1934463578
88.6939945815
87.1483819569
85.555721188
83.9151394193
82.2257812821
80.486821865
78.6974969415
76.8571551547
74.9653417321
73.0219313544
71.0273357948
68.9828213163
66.8909813168
64.7564134954
62.586630958
60.393182133
58.1928613232
56.0081168756
53.8654292055
127.620427101
127.468922676
127.295424298
127.096134792
126.870575574
126.627947347
126.375623721
126.117835379
125.85665261
125.592649803
125.325478594
125.054337526
124.778264745
124.496285087
124.207470343
123.910954585
123.605929
123.291629567
122.967324854
122.632296539
122.28584836
121.927280332
121.555892569
121.170980828
120.771833855
120.357731753
119.92794503
119.481734009
119.01834858
118.537028113
118.037001497
117.517487314
116.977694132
116.416820831
115.834057012
115.228583282
114.599571818
113.946186781
113.267585004
112.562916683
111.831326127
111.071952596
110.283931171
109.466393657
108.618469515
107.739286821
106.827973281
105.883657278
104.905468949
103.892541235
102.844010976
101.759020065
100.636716598
99.4762560288
98.2768024014
97.0375296778
95.7576231473
94.4362809951
93.0727162357
91.6661593229
90.2158596486
88.7210820257
87.1811302795
85.5953659675
83.963188994
82.2840523633
80.5575276754
78.7833368593
76.9614190927
75.0920336346
73.175910907
71.2144721652
69.21014298
67.1667870723
65.0902796126
62.9892064179
60.8756132424
58.7656514665
56.6794045823
54.6390437057
127.620430677
127.468939676
127.295452098
127.096171583
126.870620537
126.627999625
126.375682369
126.117899595
125.856721793
125.592723453
125.325556325
125.054419061
124.77834988
124.496373675
124.207562282
123.911049814
123.606027498
123.291731349
122.967429377
122.632405314
122.285960954
121.927397003
121.556013746
121.171107055
120.771965764
120.357870141
119.928090829
119.481888325
119.018512726
118.537203647
118.037190294
117.517691697
116.977917018
116.417065854
115.834328615
115.228886901
114.599913987
113.946575435
113.268029759
112.563429173
111.831920433
111.072645778
110.284743933
109.467351159
108.619602345
107.740632164
106.829576329
105.885572926
104.90776383
103.895296204
102.847324153
101.763010526
100.64152884
99.4820654198
98.283821801
97.0460174262
95.7678927436
94.448712858
93.0877718607
91.6843982608
90.2379623198
88.7478852718
87.213645596
85.6347873762
84.0109566684
82.3419463734
80.6277002801
78.8683824995
77.0644583874
75.2168052373
73.3268677156
71.3968726479
69.4301197237
67.4313626063
65.4072820097
63.3670197422
61.3226864863
59.2897005076
57.2863656271
55.3320275599
127.639796833
127.488980219
127.311287366
127.106457221
126.876176133
126.63015882
126.375739538
126.116875724
125.855299398
125.591295502
125.324311232
125.053419091
124.777589473
124.495817256
124.207166006
123.910772429
123.605834642
123.291596213
122.967330691
122.632333321
122.285904422
121.927349262
121.555970664
121.171066148
120.7719257
120.357830356
119.928051338
119.481849606
119.018475651
118.53716947
118.037160691
117.517668841
116.977903659
116.417065434
115.83434538
115.228926067
114.59998194
113.946679943
113.268180247
112.563637058
111.832199553
111.073012928
110.28521952
109.467960006
108.620374644
107.741604628
106.830793573
105.887089132
104.909644756
103.897621635
102.850190888
101.766535985
100.645855447
99.4873659152
98.2903056531
97.0539385828
95.7775589882
94.4604970746
93.1021256006
91.7018678707
90.2592074232
88.7737005652
87.24499349
85.6728427554
84.0571392949
82.3979406485
80.6955216201
78.9504377872
77.1636082904
75.3364279579
73.4709180603
71.5699262058
69.6373861248
67.6786454222
65.7008563268
63.7133976024
61.7282508443
59.7602170197
57.8264445151
55.9446747178
127.682216965
127.531275358
127.343664427
127.126881654
126.886815389
126.633995052
126.375498887
126.114617875
125.852354002
125.588402868
125.321810966
125.05141156
124.776050693
124.494670993
124.206323967
123.910153655
123.605372755
123.291240393
122.967043749
122.632088227
122.285683301
121.927139846
121.555764936
121.170858996
120.771714001
120.357612349
119.927826219
119.481617266
119.018236523
118.536924468
118.036911218
117.517416828
116.97765163
116.416816594
115.834103723
115.228696517
114.599770543
113.946494084
113.268028901
112.563531125
111.832152278
111.07304042
110.285341394
109.468200139
108.62076209
107.742174715
106.831589236
105.888162514
104.911059131
103.899453762
102.85253387
101.769502724
100.649582824
99.4920198325
98.2960871269
97.0610910861
95.7863772748
94.4713377591
93.1154198587
91.718136659
90.2790797205
88.7979346833
87.2745007257
85.7087149555
84.1006836016
82.4507213311
80.7594007034
79.0276171494
77.2566724198
75.4483824103
73.6052161538
71.7304734669
69.8285084272
67.9050048445
65.9673016784
64.0247497636
62.0890529729
60.174529808
58.2977842305
56.4761196715
127.756457044
127.60049005
127.393831589
127.157044269
126.901625831
126.638691088
126.374460564
126.110932479
125.847902504
125.584174452
125.318224325
125.048562228
124.773875875
124.493047632
124.205120707
123.9092544
123.604684369
123.29069265
122.966584859
122.631682273
122.285305625
121.926773823
121.555399615
121.170487296
120.771331468
120.357216311
119.927415226
119.481190725
119.017794478
118.536467491
118.036440375
117.516933726
116.977158475
116.416316282
115.833599945
115.228193823
114.599274493
113.946011478
113.267568059
112.563102209
111.83176764
111.072715059
110.285093611
109.468052251
108.620741271
107.742314031
106.831928888
105.888751318
104.911956325
103.900731209
102.854278717
101.771820607
100.652601756
99.4958948954
98.301006081
97.0672811108
95.7941130792
94.4809512702
93.1273117347
91.7327899278
90.2970759217
88.8199728211
87.3014192579
85.7415168634
84.1405640595
82.4990980574
80.8179463472
79.0982911407
77.3417491163
75.5504700785
73.7272588683
71.8757256093
70.0004687102
68.1072974099
66.2035002756
64.2981636826
62.4025428646
60.5305116637
58.6985797687
56.9246396381
127.879739333
127.704082179
127.462983198
127.195803627
126.919031378
126.643071987
126.372042959
126.105705513
125.842105271
125.578889115
125.313849876
125.045138436
124.771282042
124.491112547
124.203676703
123.908159524
123.603827595
123.289989508
122.965979569
122.631132033
122.28478197
121.926257781
121.554878648
121.169953248
120.770779136
120.356642485
119.926818051
119.480569298
119.017148609
118.535797522
118.035747047
117.516218221
116.976422537
116.415562302
115.832831017
115.227413967
114.598488746
113.945225996
113.266790315
112.562341278
111.831034645
111.072023676
110.284460478
109.467497615
108.62028979
107.741995725
106.831780245
105.888816638
104.912289367
103.901397184
102.855356662
101.77340627
100.654811106
99.498868354
98.3049136328
97.0723283687
95.800548443
94.4890744818
93.1374840664
91.745446203
90.3127385647
88.8392681282
87.3250960426
85.7704674367
84.1758472995
82.5419635868
80.8698589094
79.1609525966
77.4171144731
75.6407522278
73.8349136152
72.0034060088
70.1509351813
68.2832699046
66.4074467003
64.5320443646
62.6675953848
60.8273249929
59.0277153583
57.2878924331
128.083347868
127.852297502
127.551295108
127.240727188
126.936622259
126.645641947
126.367671897
126.098963685
125.835284198
125.572962159
125.309086881
125.041476411
124.768531225
124.489059766
124.202130609
123.906965535
123.60286902
123.289179671
122.96525785
122.630456769
122.284124755
121.925599616
121.554206955
121.169259809
120.77005862
120.355891489
119.926034488
119.479752051
119.01629731
118.534912453
118.034829128
117.515268866
116.975443488
116.414555623
115.831799186
115.226359827
114.59741618
113.944139976
113.265697062
112.561248467
111.829951631
111.070962124
110.283434765
109.466525343
108.619392448
107.741199473
106.831116876
105.888324802
104.912016057
103.901399462
102.855703741
101.774182077
100.656117377
99.5008282841
98.3076756411
97.0760713337
95.8054883474
94.4954718291
93.1456525635
91.7557629775
90.3256560567
88.8553277523
87.3449435944
85.79487019
84.2057123985
82.5783570074
80.9140235548
79.2143234404
77.4813268531
75.7176382152
73.9264785277
72.1117733482
70.2782447643
68.4315100964
66.5782009816
64.7261424751
62.8847310211
61.0659544264
59.2855271526
57.5632998384
128.417769844
128.055419556
127.656123807
127.2878171
126.95135153
126.644770395
126.360833943
126.090820459
125.82781687
125.566829009
125.304331211
125.037898107
124.765868643
124.48706833
124.200610028
123.905761643
123.601865745
123.288302524
122.964447822
122.6296756
122.283346931
121.924808113
121.55339059
121.168411366
120.769173393
120.354966306
119.925067137
119.478740878
119.015241013
118.533810142
118.033680497
117.514074268
116.974204181
116.413273528
115.830476687
115.22500032
114.596023253
113.942717904
113.264251118
112.559785249
111.828479456
111.069490816
110.28197628
109.46509431
108.618006745
107.739880947
106.829892262
105.887226582
104.911083354
103.900679566
102.855253892
101.774071542
100.656429892
99.501665019
98.3091598373
97.0783524384
95.8087463325
94.4999232437
93.1515576872
91.7634341177
90.335467108
88.8677251702
87.3604586852
85.814132656
84.2294647945
82.607469578
80.9495079141
79.2573427892
77.5332004319
75.779835395
74.0005954855
72.1994813122
70.3811936016
68.5511628066
66.715555497
64.8812636065
63.0560540619
61.2496080758
59.4747121173
57.7486737947
128.968197062
128.315135547
127.763640753
127.327219214
126.957412306
126.637462469
126.350231195
126.080870139
125.819709591
125.56065294
125.299781347
125.034585934
124.763443674
124.485252682
124.199196642
123.904604443
123.60086103
123.287378956
122.963560035
122.628793118
122.282449477
121.923882298
121.552427704
121.16740591
120.768122052
120.353867327
119.923919707
119.47754489
119.013996799
118.532517857
118.032339293
117.512684049
116.972764652
116.411784676
115.828939388
115.223415795
114.594393575
113.941045917
113.262540469
112.558040495
111.826706237
111.067696409
110.280169773
109.463286889
108.616212091
107.738115691
106.828176411
105.885584452
104.909544975
103.899281591
102.854040862
101.773097469
100.655760064
99.5013779312
98.3093500165
97.0791339071
95.8102567511
94.5023285045
93.1550573041
91.7682675335
90.3419210657
88.8761421203
87.3712462533
85.8277738613
84.2465288933
82.6286227648
80.9755221847
79.2891041326
77.571712958
75.8262182209
74.0560677764
72.2653277749
70.4586986737
68.641487662
66.8194784276
64.9986664187
63.1849164824
61.384449923
59.6030305449
57.8450116237
129.964430531
128.607619219
127.818230213
127.320479102
126.932411798
126.611549853
126.329373722
126.065698633
125.809214029
125.553580106
125.295056382
125.031401204
124.761234357
124.483639684
124.197916727
123.903500581
123.599850722
123.286402771
122.962581869
122.627791301
122.281410779
121.922798475
121.551293087
121.166214681
120.766868171
120.35254747
119.922531451
119.476086178
119.012465984
118.5309144
118.030665014
117.510939488
116.970950545
116.409901942
115.826988835
115.221398442
114.59231074
113.938899327
113.260332405
112.555773957
111.824385097
111.065325535
110.277755218
109.460836158
108.613734462
107.735622619
106.825682073
105.883106152
104.907103478
103.896901978
102.851753535
101.770939304
100.653775952
99.499623078
98.3078905881
97.0780491133
95.8096418769
94.5022980748
93.1557487623
91.7698454775
90.344582074
88.8801201789
87.376818835
85.8352686102
84.2563306525
82.641179764
80.9913490741
79.3088011056
77.5959680308
75.8558071973
74.0918531496
72.3082542228
70.5097856494
68.7018041804
66.8899874483
65.0800064146
63.2767808104
61.4840033673
59.6955184244
57.8697178222
131.758552365
128.83194521
127.721297861
127.198217333
126.835659111
126.545281264
126.286700208
126.03911756
125.793054664
125.543941473
125.289372718
125.028037138
124.759174542
124.482272965
124.196926334
123.902683134
123.59907454
123.285603372
122.961727321
122.626865682
122.280406737
121.921713089
121.550125916
121.164969883
120.765552649
120.351162988
119.921078641
119.474565389
119.01087727
118.529257193
118.028937617
117.50914105
116.969080466
116.407959753
115.824974262
115.219311407
114.590151392
113.93666808
113.258029999
112.55340154
111.821944304
111.062818566
110.275184944
109.45820624
108.611049483
107.732888228
106.822905197
105.880295294
104.904269098
103.894056895
102.848913351
101.768122911
100.651006042
99.4969265552
98.3053002414
97.0756048777
95.8073919373
94.5003004297
93.1540731204
91.7685755193
90.3438181088
88.8799823157
87.3774505773
85.8368409848
84.2590468337
82.6452835012
80.9971459889
79.3166345669
77.606232824
75.8689636056
74.1084379599
72.3288950613
70.5352176874
68.7329413057
66.928386625
65.1282595361
63.3395559218
61.5689921716
59.7998916322
57.8779684948
37.6088060271
34.1344719515
31.7843109182
29.8615291492
28.2062889954
26.7508068381
25.4567228449
24.2987356135
23.2580877343
22.3197570106
21.4712873832
20.7021675014
20.0034258353
19.3673427307
18.7872334134
18.2572785055
17.7723885399
17.3280941172
16.9204554854
16.5459880118
16.2016004404
15.8845429602
15.5923632338
15.322868552
15.0740931054
14.844269865
14.6318064083
14.4352645451
14.253343009
14.0848621153
13.9287500972
13.7840310887
13.6498143326
13.5252850796
13.409697082
13.3023659584
13.2026632281
13.1100108943
13.0238761609
12.9437670996
12.8692311897
12.7998632079
12.7353309768
12.6752667698
12.6193142094
12.5671334333
12.5184312385
12.4729461473
12.4304384399
12.3906951706
12.3534915603
12.3186281225
12.2859184276
12.2551972175
12.2263261018
12.1991456376
12.1735108425
12.1492936323
12.1263771387
12.1046542988
12.0840267307
12.0644033811
12.0456995594
12.0278368202
12.0107432651
11.9943532949
11.9786065733
11.963447266
11.948823845
11.9346893569
11.9210014761
11.9077215283
11.8948134838
11.882244181
11.8699841958
11.8580083314
11.8462944707
11.834822
11.8235719311
11.8125280368
11.8016771775
11.7910082071
11.7805109073
11.7701765998
11.7599992947
11.7499756403
11.7401036157
11.7303819768
11.7208113854
11.7113952575
11.7021390488
11.6930492048
11.684134023
11.6754049755
11.6668760888
11.6585631613
11.650483848
11.6426594275
11.6351149123
11.6278778078
11.6209790369
11.6144540738
11.6083438863
11.6026931145
11.5975513874
11.5929752077
11.5890284399
11.5857811879
11.5833109224
11.5817049158
11.5810609328
11.5814862225
11.5830993597
11.5860335492
11.5904364626
11.5964698957
11.6043133496
11.6141664157
11.6262485902
11.6408011632
11.6580907768
11.6784106117
11.7020810178
11.7294534203
11.7609125826
11.7968757026
11.8377955409
11.884162566
11.9365036825
11.9953814342
12.0613941966
12.1351705293
12.2173631552
12.3086406292
12.4096721338
12.5211062786
12.6435457172
12.7775060496
12.9233462708
13.0812291129
13.2509542208
13.4318538952
13.6225679994
13.820776395
14.0228119466
14.2231677048
14.4134043548
14.5817512623
14.7114820336
14.7792886849
14.753364
14.5913498648
14.2387394551
13.6288562599
12.6860135597
11.3357363677
9.52374031839
7.24518583229
4.56051999504
1.54912249798
40.8556806876
36.8389987543
34.163752185
32.0406388998
30.2507777503
28.6988279234
27.3318531222
26.1167675878
25.0301056519
24.0537978122
23.1733373191
22.3767870504
21.6541604982
20.9970019699
20.398084782
19.851185193
19.3509085253
18.8925518763
18.4719947431
18.0856103358
17.7301942515
17.402905764
17.1012174741
16.82287423
16.56585737
16.3283546529
16.1087339174
15.9055222844
15.7173876594
15.5431225092
15.3816297233
15.2319100928
15.093051097
14.9642175363
14.8446442408
14.7336287087
14.6305257259
14.534741529
14.4457289082
14.362982005
14.2860313638
14.2144363902
14.1477811272
14.0856713727
14.0277860848
13.9738448109
13.9235527303
13.876608076
13.8327520832
13.7917314925
13.7533393355
13.7173750952
13.6836521181
13.6519942088
13.6222350088
13.5942216343
13.5678166675
13.542890729
13.5193222628
13.4969996568
13.4758203291
13.4556892817
13.4365184409
13.4182258404
13.4007367092
13.3839823933
13.3679001413
13.3524315315
13.3375231138
13.3231256914
13.3091950675
13.2956905475
13.2825744801
13.2698121154
13.2573724699
13.245228919
13.2333576849
13.2217366429
13.2103457721
13.1991672114
13.1881869073
13.1773920962
13.1667712516
13.156314649
13.1460149212
13.1358675624
13.1258687909
13.1160163995
13.1063092482
13.0967493046
13.0873407857
13.0780874143
13.0689974358
13.060078687
13.0513443309
13.0428071782
13.0344824788
13.0263898246
13.0185493762
13.0109877286
13.0037290757
12.9968091378
12.9902599513
12.9841252587
12.9784458535
12.9732747229
12.9686686985
12.964689243
12.9614067597
12.9588996026
12.9572538665
12.9565679725
12.9569460468
12.9585085795
12.9613872861
12.9657265803
12.971688001
12.9794489451
12.9892047971
13.0011717421
13.0155861328
13.0327080663
13.0528210369
13.0762360087
13.1032906555
13.1343513597
13.1698119034
13.2100984294
13.2556636814
13.3069869932
13.3645750136
13.4289476939
13.5006382583
13.5801788504
13.6680811431
13.7648156141
13.8707775255
13.9862447759
14.1113064929
14.2457961921
14.3891527194
14.5402877358
14.6973325878
14.8574058826
15.016200436
15.1676600408
15.3023486791
15.4079535173
15.4672304817
15.4567134174
15.3451440384
15.0918756374
14.6458130446
13.9459638764
12.9241395733
11.5137238907
9.66438731625
7.3631667432
4.6574859241
1.64454202083
43.1140518042
39.194987006
36.3571475409
34.0952964573
32.2001126031
30.5680408833
29.1388155962
27.8742018903
26.7472191265
25.7373859375
24.8285127665
24.0074664845
23.2633977214
22.5872205842
21.9712431468
21.4088945013
20.894518373
20.4232124626
19.9907026775
19.593242486
19.2275325739
18.8906558885
18.5800227118
18.293325873
18.0285023812
17.783701743
17.557258163
17.3476687063
17.1535739354
16.9737410928
16.8070494292
16.6524774215
16.5090914537
16.3760363492
16.2525280392
16.1378461223
16.0313283999
15.9323649632
15.8403932885
15.7548935791
15.6753861164
15.6014293812
15.5326134834
15.4685261693
15.4088191943
15.3531508875
15.3012135154
15.2527403367
15.2074727867
15.1651807356
15.1256339235
15.0886158233
15.0539279023
15.0213872837
14.9908249683
14.9620823215
14.9350120611
14.9094776898
14.8853528133
14.8625215916
14.840877458
14.820321567
14.8007624376
14.7821149287
14.764301184
14.7472497503
14.7308953065
14.7151771437
14.7000396899
14.6854315465
14.6713064409
14.6576219482
14.6443388172
14.6314210219
14.6188361587
14.6065559241
14.5945550654
14.5828101551
14.5713002965
14.5600066019
14.5489135654
14.5380072706
14.5272751761
14.5167066858
14.5062933971
14.4960294991
14.4859097696
14.4759308201
14.4660904702
14.4563888885
14.4468289634
14.4374128495
14.4281470736
14.4190376685
14.4100952132
14.4013307034
14.3927567816
14.3843905339
14.3762487511
14.3683547306
14.3607293156
14.3534039353
14.3464061001
14.3397740974
14.3335440252
14.3277621789
14.3224788707
14.3177477514
14.3136304788
14.31019669
14.3075217691
14.3056925905
14.3048009682
14.3049523962
14.3062628247
14.3088593012
14.3128837487
14.318491642
14.3258536735
14.3351589009
14.3466135544
14.3604435814
14.3768945559
14.3962351434
14.4187554535
14.4447688895
14.4746093473
14.5086359719
14.5472262636
14.5907742221
14.6396909081
14.6943877356
14.7552742657
14.8227433681
14.8971472377
14.978775142
15.0678136652
15.1643011874
15.2680549368
15.3785880393
15.4949815452
15.6157233195
15.73847898
15.8598275182
15.9748130413
16.0771649652
16.1561468436
16.199304604
16.1890099363
16.1018278718
15.907230854
15.5663706424
15.0313689587
14.2464553526
13.1499368285
11.6818298648
9.79529578185
7.47143440735
4.74445993811
1.72356998372
44.9514233605
41.2379058473
38.3550632624
36.0142822855
34.0456012667
32.3521250427
30.872881301
29.5673519978
28.4064422064
27.3680173576
26.4346475176
25.5922795704
24.8293833993
24.1363685334
23.5051677559