/*--------------------------------*- C++ -*----------------------------------*\
| =========                 |                                                 |
| \\      /  F ield         | OpenFOAM: The Open Source CFD Toolbox           |
|  \\    /   O peration     | Version:  2106                                  |
|   \\  /    A nd           | Website:  www.openfoam.com                      |
|    \\/     M anipulation  |                                                 |
\*---------------------------------------------------------------------------*/
FoamFile
{
    version     2.0;
    format      ascii;
    arch        "LSB;label=32;scalar=64";
    class       volVectorField;
    location    "0.02";
    object      U;
}
// * * * * * * * * * * * * * * * * * * * * * * * * * * * * * * * * * * * * * //

dimensions      [0 1 -1 0 0 0 0];

internalField   nonuniform List<vector> 
11200
(
(0.662383155849 0.15063166095 0)
(0.558850987492 0.103233407486 0)
(0.384157990469 0.0512189255767 0)
(0.28501409784 0.0245939337205 0)
(0.234896804603 0.0119898654207 0)
(0.206824039474 0.00606986496805 0)
(0.1905811559 0.00317572756659 0)
(0.181273985321 0.00167689732897 0)
(0.176041262373 0.000869257061168 0)
(0.173195894121 0.000430575965502 0)
(0.171730523576 0.000197991649849 0)
(0.171037056916 8.08086859593e-05 0)
(0.170754225371 2.56835430904e-05 0)
(0.170673333626 2.67250781629e-06 0)
(0.170683309671 7.9267829554e-07 0)
(0.17073022696 9.09339525241e-06 0)
(0.170784845755 1.71245372341e-05 0)
(0.170833236346 2.26235636192e-05 0)
(0.170871888319 2.58562594203e-05 0)
(0.170900616522 2.77945746883e-05 0)
(0.170921315821 3.04465873619e-05 0)
(0.170936342545 3.31706757957e-05 0)
(0.170946997454 3.55888865977e-05 0)
(0.170954371878 3.77448294426e-05 0)
(0.170959408342 3.97538571194e-05 0)
(0.170962833386 4.17334399806e-05 0)
(0.170965173539 4.37941797554e-05 0)
(0.170966773996 4.59836064009e-05 0)
(0.17096784967 4.81854620686e-05 0)
(0.170968556041 5.03539241808e-05 0)
(0.170969023453 5.24940942779e-05 0)
(0.170969346551 5.46286524411e-05 0)
(0.170969575593 5.67711439874e-05 0)
(0.170969740492 5.89270373792e-05 0)
(0.170969862415 6.10993613245e-05 0)
(0.170969954626 6.32889508034e-05 0)
(0.17097002459 6.54954024525e-05 0)
(0.170970076512 6.77184143639e-05 0)
(0.170970111865 6.99572663214e-05 0)
(0.170970129513 7.22102287592e-05 0)
(0.170970127614 7.44750699525e-05 0)
(0.170970105177 7.67491841078e-05 0)
(0.170970061903 7.90288957712e-05 0)
(0.170969998656 8.13099607052e-05 0)
(0.170969918609 8.35892121619e-05 0)
(0.170969826322 8.58647362068e-05 0)
(0.170969724698 8.81344242329e-05 0)
(0.170969614861 9.03950028928e-05 0)
(0.170969497716 9.26441624954e-05 0)
(0.170969374044 9.48801849554e-05 0)
(0.170969245505 9.71000706687e-05 0)
(0.170969117137 9.92999748792e-05 0)
(0.170968999417 0.000101476607126 0)
(0.170968909237 0.000103626598264 0)
(0.170968871768 0.000105746168725 0)
(0.170968923538 0.000107832376371 0)
(0.170969116217 0.00010988149613 0)
(0.170969525901 0.000111883780291 0)
(0.170970271842 0.000113819228726 0)
(0.170971533111 0.000115652872272 0)
(0.170973616055 0.000117304107792 0)
(0.170977082864 0.000118683279845 0)
(0.170982619574 0.000119968368571 0)
(0.170991196994 0.000121591686261 0)
(0.171004387859 0.000123926276783 0)
(0.171024725413 0.000126660065247 0)
(0.171056220331 0.000129458392102 0)
(0.171104869453 0.000132092996724 0)
(0.171179203249 0.000134961003638 0)
(0.171292405066 0.000140731702926 0)
(0.171471681183 0.000153532585486 0)
(0.171757091704 0.000166572204703 0)
(0.172206065229 0.000179625579592 0)
(0.172920800486 0.000189217214729 0)
(0.174102146087 0.00017158023342 0)
(0.176132007335 1.66019095342e-05 0)
(0.179879302849 -0.000682619144682 0)
(0.189706060464 -0.00354431844659 0)
(0.222144804401 -0.0164222929493 0)
(0.260654999796 -0.0746716547115 0)
(0.965385719535 0.28927051845 0)
(0.962319992526 0.252258408268 0)
(0.825359326677 0.157894962468 0)
(0.702652739307 0.0940034580942 0)
(0.618832425366 0.0553966390504 0)
(0.562871828084 0.0326769543708 0)
(0.526589036871 0.0192387978502 0)
(0.503960630087 0.0111770323249 0)
(0.490321622316 0.00632406354731 0)
(0.482383678265 0.00343950112092 0)
(0.477949848121 0.00177001325494 0)
(0.475594098394 0.00083924137255 0)
(0.474421918888 0.000343936373841 0)
(0.47389557582 9.64393445951e-05 0)
(0.47370323233 -1.12652012337e-05 0)
(0.473668810727 -4.78203557628e-05 0)
(0.473699834803 -5.37696824198e-05 0)
(0.473752001905 -4.78192583505e-05 0)
(0.473805144783 -3.84552673049e-05 0)
(0.473851655411 -2.90118740415e-05 0)
(0.473889041649 -1.97391596485e-05 0)
(0.473917101894 -1.17233474525e-05 0)
(0.473937566067 -5.32622067557e-06 0)
(0.473952259679 -3.94288519013e-07 0)
(0.473962709215 3.32263573563e-06 0)
(0.473970154419 6.0305016721e-06 0)
(0.473975491728 7.85597916763e-06 0)
(0.473979197293 8.98512091058e-06 0)
(0.473981632086 9.88249828678e-06 0)
(0.473983218225 1.06550549923e-05 0)
(0.473984283521 1.13096204278e-05 0)
(0.473985032406 1.18986696979e-05 0)
(0.473985567318 1.24522395547e-05 0)
(0.473985953814 1.29814927384e-05 0)
(0.473986238635 1.3495363917e-05 0)
(0.473986450646 1.39999630229e-05 0)
(0.473986607937 1.44997790601e-05 0)
(0.473986722193 1.49991084845e-05 0)
(0.473986799852 1.55012295566e-05 0)
(0.473986843529 1.60085438749e-05 0)
(0.473986853536 1.65226936612e-05 0)
(0.473986828291 1.70438021385e-05 0)
(0.473986764778 1.75701318084e-05 0)
(0.473986660513 1.81002014356e-05 0)
(0.473986515488 1.86351477138e-05 0)
(0.473986331747 1.9178083044e-05 0)
(0.473986109723 1.97321601367e-05 0)
(0.473985849637 2.02973264687e-05 0)
(0.473985554798 2.08753387414e-05 0)
(0.473985231363 2.14689408563e-05 0)
(0.473984889563 2.20793830536e-05 0)
(0.473984546498 2.2706767477e-05 0)
(0.47398422867 2.33500950292e-05 0)
(0.473983974767 2.40058736858e-05 0)
(0.473983842063 2.46686760516e-05 0)
(0.473983917331 2.53322245557e-05 0)
(0.473984331438 2.59864061968e-05 0)
(0.473985285214 2.66117312112e-05 0)
(0.473987096705 2.717647167e-05 0)
(0.47399024098 2.76400057857e-05 0)
(0.473995541136 2.78752352737e-05 0)
(0.474004668615 2.7707994842e-05 0)
(0.474019962155 2.71375873725e-05 0)
(0.474044358861 2.43780210203e-05 0)
(0.474081662406 1.76747489645e-05 0)
(0.474138348398 5.95485964581e-06 0)
(0.474225510589 -1.27322049472e-05 0)
(0.474360473991 -4.15623301054e-05 0)
(0.474570660809 -8.48861557766e-05 0)
(0.474899571605 -0.000147572214274 0)
(0.475414659927 -0.000237771379253 0)
(0.476228823128 -0.000384581635263 0)
(0.47752834784 -0.000636154146007 0)
(0.479630885202 -0.00108057790499 0)
(0.483122096215 -0.0019253817217 0)
(0.489080358272 -0.00372144412898 0)
(0.499610166919 -0.00795558474816 0)
(0.520289079501 -0.0189045153755 0)
(0.559769251543 -0.0509705961483 0)
(0.586298114178 -0.14626242555 0)
(1.02226647587 0.238241898755 0)
(1.08285295841 0.294539603966 0)
(1.03720079699 0.236284395688 0)
(0.960986583225 0.168915844303 0)
(0.8917126652 0.113867270587 0)
(0.837165840695 0.0739644454995 0)
(0.797788018918 0.0466790157604 0)
(0.771208517223 0.0286071721953 0)
(0.754153695667 0.0169557654751 0)
(0.743673080545 0.0096659346727 0)
(0.737496884997 0.00525845073417 0)
(0.734012001059 0.00269361904953 0)
(0.732138561037 0.00126383416164 0)
(0.73119064874 0.000506283216364 0)
(0.730750463072 0.000129643658426 0)
(0.730575330984 -4.07476714039e-05 0)
(0.730530755624 -0.000105515329724 0)
(0.730543675825 -0.000120114480499 0)
(0.73057710531 -0.000112194332109 0)
(0.730613873312 -9.62773586383e-05 0)
(0.730646726777 -7.97303771584e-05 0)
(0.730673310282 -6.51402132643e-05 0)
(0.730693693533 -5.32012312867e-05 0)
(0.730708757927 -4.38650128236e-05 0)
(0.730719569713 -3.67847663025e-05 0)
(0.730727128323 -3.15698862788e-05 0)
(0.730732352279 -2.7925704284e-05 0)
(0.730736206582 -2.56371119266e-05 0)
(0.7307391149 -2.44333331634e-05 0)
(0.730741097162 -2.39511984347e-05 0)
(0.730742432026 -2.40502051101e-05 0)
(0.730743379021 -2.44735982619e-05 0)
(0.730744054191 -2.5080500794e-05 0)
(0.730744536643 -2.58141233741e-05 0)
(0.730744887358 -2.66330038908e-05 0)
(0.730745143667 -2.75078940311e-05 0)
(0.73074532875 -2.84200335945e-05 0)
(0.730745457698 -2.93563906313e-05 0)
(0.730745540122 -3.03068716436e-05 0)
(0.730745581419 -3.12622757293e-05 0)
(0.730745583197 -3.22156765705e-05 0)
(0.730745544076 -3.31631101696e-05 0)
(0.730745461051 -3.41027966116e-05 0)
(0.730745331638 -3.50332376553e-05 0)
(0.730745155221 -3.59523468551e-05 0)
(0.730744932196 -3.68580230519e-05 0)
(0.730744658534 -3.7745715571e-05 0)
(0.730744331347 -3.86126798457e-05 0)
(0.73074395546 -3.94513869019e-05 0)
(0.730743540364 -4.0253634449e-05 0)
(0.730743101301 -4.10132365247e-05 0)
(0.730742662869 -4.17259953577e-05 0)
(0.730742261819 -4.23916030374e-05 0)
(0.73074195121 -4.30161769891e-05 0)
(0.730741810241 -4.36135425245e-05 0)
(0.730741961224 -4.42094008699e-05 0)
(0.730742594461 -4.48553185405e-05 0)
(0.730744011904 -4.56618240329e-05 0)
(0.730746706432 -4.68553644338e-05 0)
(0.730751392662 -4.88295369039e-05 0)
(0.730759252335 -5.24675466785e-05 0)
(0.730772533189 -5.94379213693e-05 0)
(0.730792800062 -7.13123370614e-05 0)
(0.730822858785 -8.94678708417e-05 0)
(0.730869854136 -0.000116827522013 0)
(0.73094414119 -0.000157328812265 0)
(0.731060480145 -0.000217514198496 0)
(0.731242107119 -0.000307860036134 0)
(0.731526101478 -0.000445042911321 0)
(0.7319718199 -0.000656341458039 0)
(0.732671909331 -0.0009880322887 0)
(0.733772772326 -0.00151983629045 0)
(0.735517430696 -0.00239705447306 0)
(0.73831235403 -0.00388414523145 0)
(0.742841108311 -0.00651532494914 0)
(0.750208599347 -0.0114471918061 0)
(0.762103801752 -0.0212372456748 0)
(0.781537407691 -0.0416271305776 0)
(0.809554338191 -0.0860712033921 0)
(0.819192382905 -0.17592465444 0)
(1.02257988868 0.170309792639 0)
(1.10213809436 0.273910194755 0)
(1.12020092203 0.26105371739 0)
(1.09828084214 0.210758748791 0)
(1.06306469906 0.155598191069 0)
(1.02784393493 0.108302951131 0)
(0.998537904979 0.072070238209 0)
(0.976708253482 0.0460819499628 0)
(0.961616633325 0.0283376867775 0)
(0.951758900219 0.0167417505188 0)
(0.945623767931 0.00947487630345 0)
(0.941970415185 0.00510577237122 0)
(0.939886450534 0.00258753834915 0)
(0.93875077568 0.00120008116977 0)
(0.938164383312 0.000474136551847 0)
(0.93788228599 0.00012023628265 0)
(0.937761065386 -3.54347343589e-05 0)
(0.937721906097 -9.0249597619e-05 0)
(0.937721490051 -9.78995600982e-05 0)
(0.937736002123 -8.58182037041e-05 0)
(0.937754300175 -6.76821293189e-05 0)
(0.937771545343 -4.96424074555e-05 0)
(0.937786016568 -3.41079233937e-05 0)
(0.937797417116 -2.16747948277e-05 0)
(0.937806054018 -1.21430574715e-05 0)
(0.937812417454 -5.02390994176e-06 0)
(0.937816960797 2.25479433486e-07 0)
(0.937820023332 4.01940740327e-06 0)
(0.937822041001 6.45125617566e-06 0)
(0.937823362821 7.98591138899e-06 0)
(0.937824286785 9.17840602176e-06 0)
(0.937825064598 1.01223197707e-05 0)
(0.937825680703 1.09302609645e-05 0)
(0.937826150262 1.16358357546e-05 0)
(0.93782651668 1.22650414744e-05 0)
(0.937826802477 1.28427471004e-05 0)
(0.937827019812 1.33872552874e-05 0)
(0.937827178037 1.39134189805e-05 0)
(0.937827284567 1.44334620338e-05 0)
(0.937827343738 1.49579307022e-05 0)
(0.937827355979 1.54938535878e-05 0)
(0.937827319204 1.60455039811e-05 0)
(0.93782723014 1.66153055493e-05 0)
(0.937827085266 1.72049625735e-05 0)
(0.937826881169 1.78170118943e-05 0)
(0.937826617078 1.84595150756e-05 0)
(0.937826288843 1.91518321252e-05 0)
(0.937825895157 1.98830331092e-05 0)
(0.937825442457 2.06478810241e-05 0)
(0.937824939212 2.14467817627e-05 0)
(0.937824401212 2.22781164407e-05 0)
(0.937823855858 2.3135390892e-05 0)
(0.937823343749 2.40030211777e-05 0)
(0.937822923232 2.48520669204e-05 0)
(0.937822679793 2.56351052904e-05 0)
(0.93782273785 2.62747822443e-05 0)
(0.937823270059 2.66426586406e-05 0)
(0.937824514226 2.65343403943e-05 0)
(0.93782684806 2.56839535324e-05 0)
(0.937830663419 2.3843462251e-05 0)
(0.937836443975 1.99494061334e-05 0)
(0.937846409225 1.25505884757e-05 0)
(0.937864673521 -1.31186969527e-06 0)
(0.937895565489 -2.40348882009e-05 0)
(0.937944546841 -5.9931033976e-05 0)
(0.938020898841 -0.000117026615649 0)
(0.93813942644 -0.000207822885201 0)
(0.938323335966 -0.000351960491416 0)
(0.938608919458 -0.000580812090686 0)
(0.939052824419 -0.000945525767372 0)
(0.939742327304 -0.00153115712889 0)
(0.940815027364 -0.0024786718287 0)
(0.942490079297 -0.0040269320129 0)
(0.945107961708 -0.00660205772363 0)
(0.949181796999 -0.0109924213413 0)
(0.955401500409 -0.0187021919355 0)
(0.964470971684 -0.0325772452433 0)
(0.976925768664 -0.0578039585437 0)
(0.990294495598 -0.103439610408 0)
(0.985853605547 -0.17770190214 0)
(1.01292657551 0.118192815264 0)
(1.08871485953 0.228239985412 0)
(1.13920106403 0.245559008889 0)
(1.15817992784 0.216804018265 0)
(1.15742059899 0.171674755531 0)
(1.14722781373 0.126332680369 0)
(1.13449719968 0.0878895266281 0)
(1.12290354056 0.0582848844216 0)
(1.11379264008 0.0369897084922 0)
(1.10725686892 0.0225020456899 0)
(1.10286916559 0.0131184256186 0)
(1.10007531304 0.00730986767185 0)
(1.09837453333 0.00386662955868 0)
(1.09738049092 0.00191184024613 0)
(1.09682207826 0.000851907163052 0)
(1.09652091029 0.000307543694853 0)
(1.09636698075 4.84649639799e-05 0)
(1.09629417665 -5.92671711692e-05 0)
(1.09626368298 -9.25826483449e-05 0)
(1.09625458432 -9.21768236106e-05 0)
(1.09625520998 -7.8737199843e-05 0)
(1.09625959318 -6.22215381706e-05 0)
(1.09626487269 -4.70041350287e-05 0)
(1.09626977444 -3.46352184263e-05 0)
(1.09627382482 -2.53190324227e-05 0)
(1.09627694747 -1.87007173639e-05 0)
(1.09627925693 -1.42340524501e-05 0)
(1.09628095383 -1.13096292657e-05 0)
(1.09628229244 -9.30988073677e-06 0)
(1.09628354891 -7.90066818069e-06 0)
(1.09628466235 -6.74900001591e-06 0)
(1.09628552128 -5.88793986513e-06 0)
(1.09628619304 -5.34575140124e-06 0)
(1.09628669249 -5.07781188674e-06 0)
(1.09628707564 -4.9714598003e-06 0)
(1.096287375 -4.95993359677e-06 0)
(1.096287606 -5.00769506297e-06 0)
(1.09628777873 -5.09296802358e-06 0)
(1.09628789971 -5.20078435336e-06 0)
(1.09628797141 -5.31221322256e-06 0)
(1.09628799291 -5.4150954272e-06 0)
(1.09628796259 -5.50198485155e-06 0)
(1.09628787863 -5.56806382106e-06 0)
(1.09628773974 -5.61097042648e-06 0)
(1.0962875486 -5.63137440839e-06 0)
(1.09628731589 -5.63651979631e-06 0)
(1.09628701831 -5.64725297693e-06 0)
(1.09628663071 -5.64214186017e-06 0)
(1.09628616496 -5.60383449266e-06 0)
(1.09628563371 -5.52708677336e-06 0)
(1.09628505064 -5.41028123699e-06 0)
(1.09628443807 -5.25604439146e-06 0)
(1.09628382923 -5.07579354693e-06 0)
(1.09628327236 -4.89298677796e-06 0)
(1.09628283751 -4.74826328209e-06 0)
(1.09628262701 -4.70988405214e-06 0)
(1.09628279983 -4.88979062763e-06 0)
(1.09628365943 -5.47789113998e-06 0)
(1.09628584762 -6.9178145078e-06 0)
(1.09628970429 -1.046572596e-05 0)
(1.09629586861 -1.69195493033e-05 0)
(1.09630578815 -2.59908362968e-05 0)
(1.09632129655 -4.09215477101e-05 0)
(1.09634560486 -6.72590598713e-05 0)
(1.0963836611 -0.000112317330182 0)
(1.09644282039 -0.000187108737009 0)
(1.09653412468 -0.000308915272428 0)
(1.09667446376 -0.000505167964752 0)
(1.09688977642 -0.000819582405495 0)
(1.09721971706 -0.00132230899964 0)
(1.09772400788 -0.00212663857046 0)
(1.09849250063 -0.00341599284461 0)
(1.09965741723 -0.0054948410848 0)
(1.10140081459 -0.00887830176702 0)
(1.10394322893 -0.0144491701659 0)
(1.10744955875 -0.0237274564018 0)
(1.11173459086 -0.0392434211463 0)
(1.11582520907 -0.0648716744145 0)
(1.11616747447 -0.105822356391 0)
(1.10046366932 -0.164376079127 0)
(1.00449327812 0.0804998003063 0)
(1.06930653015 0.177240137723 0)
(1.1312399868 0.208447130832 0)
(1.1747401471 0.197074569642 0)
(1.20049830087 0.164895021539 0)
(1.21319842289 0.126918349025 0)
(1.217906237 0.0916088725662 0)
(1.21850352703 0.0626545432202 0)
(1.21738454534 0.040844360342 0)
(1.21581844023 0.0254652531635 0)
(1.21437772533 0.0152073410588 0)
(1.21325267512 0.00869334227855 0)
(1.21245180248 0.004739137109 0)
(1.21191550968 0.00244003845009 0)
(1.21157175002 0.0011603440723 0)
(1.2113583974 0.000481709480095 0)
(1.21122965772 0.000143577810378 0)
(1.21115388002 -1.06693523785e-05 0)
(1.21111000459 -6.96521679298e-05 0)
(1.21108515788 -8.2901661095e-05 0)
(1.21107148548 -7.63457734636e-05 0)
(1.21106420929 -6.29715445455e-05 0)
(1.21106052956 -4.88390146169e-05 0)
(1.21105884847 -3.64140201844e-05 0)
(1.21105826378 -2.63773590478e-05 0)
(1.21105826474 -1.86057555324e-05 0)
(1.2110585773 -1.26806745611e-05 0)
(1.21105905807 -8.16558161298e-06 0)
(1.21105962159 -4.71870351298e-06 0)
(1.21106020441 -2.1494783381e-06 0)
(1.21106071016 -4.28403873994e-07 0)
(1.21106106094 6.97359424371e-07 0)
(1.21106127952 1.37870914591e-06 0)
(1.21106148321 1.85900737173e-06 0)
(1.21106172512 2.24067311764e-06 0)
(1.21106196114 2.56077944927e-06 0)
(1.21106216328 2.8331505481e-06 0)
(1.21106232126 3.07836637736e-06 0)
(1.21106243827 3.32031005773e-06 0)
(1.2110625156 3.5682473912e-06 0)
(1.2110625456 3.83195559734e-06 0)
(1.21106252336 4.12018645058e-06 0)
(1.2110624453 4.43819952245e-06 0)
(1.21106230561 4.78721175439e-06 0)
(1.2110620925 5.16451644467e-06 0)
(1.21106178678 5.55963468532e-06 0)
(1.21106140443 5.94527103747e-06 0)
(1.21106097365 6.3377569671e-06 0)
(1.21106048673 6.76654196834e-06 0)
(1.21105993883 7.24393553197e-06 0)
(1.21105934062 7.76717991049e-06 0)
(1.21105871316 8.3245200182e-06 0)
(1.21105808808 8.89276987334e-06 0)
(1.21105751221 9.43092649842e-06 0)
(1.21105705266 9.86829705171e-06 0)
(1.21105680311 1.00868048738e-05 0)
(1.21105688079 9.89703139455e-06 0)
(1.21105732549 9.00866964697e-06 0)
(1.21105776383 6.95863113506e-06 0)
(1.21105843574 2.80129559842e-06 0)
(1.21106128225 -4.73977950035e-06 0)
(1.21106688397 -1.78366835707e-05 0)
(1.21107529496 -3.97069442229e-05 0)
(1.21108837171 -7.52875960248e-05 0)
(1.21110840887 -0.000132559122847 0)
(1.21113854198 -0.000224242007724 0)
(1.2111832998 -0.000370435568474 0)
(1.21124926125 -0.000602853657305 0)
(1.21134586363 -0.000971625107677 0)
(1.21148626294 -0.00155627479442 0)
(1.21168768652 -0.00248332777526 0)
(1.21197058467 -0.00395436002899 0)
(1.21235291429 -0.00629311872308 0)
(1.21283025403 -0.0100211997635 0)
(1.21332361164 -0.0159759935348 0)
(1.21354575449 -0.0254794854804 0)
(1.21270946066 -0.0405038907426 0)
(1.20914312892 -0.0636453575079 0)
(1.19934467414 -0.0976026585207 0)
(1.17522872186 -0.142301509581 0)
(0.998955959218 0.0535476959566 0)
(1.05286253223 0.129474676019 0)
(1.11528812584 0.162527710589 0)
(1.17067182097 0.161808821123 0)
(1.2136205363 0.141259634128 0)
(1.24374854922 0.112624703246 0)
(1.26336482761 0.0837191422206 0)
(1.27540871255 0.0587097212614 0)
(1.28241674147 0.0391219192946 0)
(1.28627566566 0.0248850063644 0)
(1.28827278311 0.0151501827904 0)
(1.28922753773 0.00883446997842 0)
(1.28963093622 0.00492492704059 0)
(1.28976149754 0.00260809071489 0)
(1.28976889624 0.00129242394184 0)
(1.28972896267 0.000578289113627 0)
(1.28967758028 0.000210991765003 0)
(1.28962995917 3.52279054205e-05 0)
(1.28959089351 -3.91416385488e-05 0)
(1.28956090434 -6.2835954396e-05 0)
(1.28953896184 -6.31857425356e-05 0)
(1.28952336176 -5.43152071207e-05 0)
(1.2895125291 -4.30702812396e-05 0)
(1.28950517603 -3.24674733938e-05 0)
(1.28950030523 -2.36046172797e-05 0)
(1.28949716755 -1.66733213471e-05 0)
(1.28949520444 -1.14857310774e-05 0)
(1.28949400746 -7.75377642213e-06 0)
(1.28949331255 -5.19043754163e-06 0)
(1.28949295389 -3.5303756073e-06 0)
(1.28949280642 -2.51500988041e-06 0)
(1.28949280141 -1.88005545986e-06 0)
(1.28949296694 -1.41663514756e-06 0)
(1.28949325962 -1.0214461096e-06 0)
(1.28949355752 -7.63012138571e-07 0)
(1.28949381432 -6.05749865136e-07 0)
(1.28949402649 -4.91715993962e-07 0)
(1.28949420784 -3.86890674937e-07 0)
(1.28949435301 -2.71717696994e-07 0)
(1.28949445166 -1.40905032597e-07 0)
(1.28949450291 1.37706778407e-08 0)
(1.28949450409 2.01545503858e-07 0)
(1.28949445055 4.3033769296e-07 0)
(1.28949433661 7.07097624323e-07 0)
(1.28949415549 1.04082556772e-06 0)
(1.28949389722 1.44899519022e-06 0)
(1.28949355986 1.9621992856e-06 0)
(1.28949316233 2.5743365725e-06 0)
(1.28949271228 3.25851747379e-06 0)
(1.28949219625 3.99985481302e-06 0)
(1.28949160862 4.78962222445e-06 0)
(1.28949095651 5.6095851188e-06 0)
(1.28949025319 6.42525481516e-06 0)
(1.28948951494 7.17597587229e-06 0)
(1.2894887587 7.75959637869e-06 0)
(1.28948800419 8.01227339173e-06 0)
(1.28948729137 7.67876700463e-06 0)
(1.28948673296 6.37912465929e-06 0)
(1.28948649022 3.68430019583e-06 0)
(1.28948632988 -4.42026330001e-07 0)
(1.28948599763 -6.921068525e-06 0)
(1.289485452 -1.96190666518e-05 0)
(1.28948460841 -4.13312224137e-05 0)
(1.28948318724 -7.71544097241e-05 0)
(1.28948036986 -0.000135407400408 0)
(1.28947450673 -0.000228929888357 0)
(1.28946252107 -0.00037786736731 0)
(1.28943899428 -0.000613832715114 0)
(1.28939444428 -0.000986427952579 0)
(1.28931222966 -0.00157351117245 0)
(1.28916287083 -0.00249720171753 0)
(1.28889378312 -0.00394845701128 0)
(1.28840988934 -0.006225045574 0)
(1.28753625653 -0.00978749403366 0)
(1.28594789059 -0.0153356706669 0)
(1.28303652448 -0.0238967486521 0)
(1.27767893752 -0.0368654371401 0)
(1.2679887813 -0.055844738008 0)
(1.25090354008 -0.082098216296 0)
(1.22094328871 -0.114837015961 0)
(0.995715207715 0.0339063869782 0)
(1.04123835952 0.0873261739167 0)
(1.10001300566 0.114716494726 0)
(1.15966054044 0.118525169807 0)
(1.21227972922 0.106734956905 0)
(1.25399450375 0.0873517154195 0)
(1.28461489179 0.0663851551597 0)
(1.30579235847 0.047447968516 0)
(1.31970477123 0.032152333873 0)
(1.32842353499 0.0207670453233 0)
(1.33364827874 0.0128288803458 0)
(1.33664263341 0.00759187169316 0)
(1.33827872279 0.00430070579867 0)
(1.33912354567 0.00232194440099 0)
(1.3395274395 0.00118149968508 0)
(1.3396972592 0.000552098880951 0)
(1.3397501118 0.000221449260855 0)
(1.33974951761 5.84336194596e-05 0)
(1.33972806905 -1.44645985517e-05 0)
(1.3397015638 -4.10855861676e-05 0)
(1.33967698604 -4.5691155065e-05 0)
(1.33965671131 -4.09892357941e-05 0)
(1.33964107042 -3.32878266415e-05 0)
(1.33962953127 -2.54946375394e-05 0)
(1.33962130163 -1.87727360376e-05 0)
(1.3396155974 -1.34333529199e-05 0)
(1.33961174315 -9.4059674667e-06 0)
(1.33960920379 -6.46576459301e-06 0)
(1.33960759419 -4.34972247229e-06 0)
(1.33960665787 -2.82690544834e-06 0)
(1.33960619667 -1.70477296426e-06 0)
(1.33960603718 -8.45570860641e-07 0)
(1.33960604244 -1.78183171724e-07 0)
(1.33960608547 2.85485416439e-07 0)
(1.33960615444 6.09115338828e-07 0)
(1.33960629885 8.29207034233e-07 0)
(1.33960648373 9.99049407392e-07 0)
(1.33960666343 1.14850707356e-06 0)
(1.33960681508 1.29103188353e-06 0)
(1.33960692964 1.44469953346e-06 0)
(1.33960700281 1.62239540954e-06 0)
(1.33960703106 1.83384189149e-06 0)
(1.33960701123 2.08771562994e-06 0)
(1.33960694021 2.39240789934e-06 0)
(1.33960681531 2.75691130268e-06 0)
(1.33960663422 3.1918804756e-06 0)
(1.33960639446 3.71269679387e-06 0)
(1.33960607758 4.32728446527e-06 0)
(1.3396056687 5.01841159528e-06 0)
(1.33960517723 5.77394934585e-06 0)
(1.33960461032 6.58875883862e-06 0)
(1.3396039683 7.45149535885e-06 0)
(1.33960325033 8.3374454346e-06 0)
(1.33960245137 9.19917807404e-06 0)
(1.33960155851 9.9553200584e-06 0)
(1.33960054708 1.04764982018e-05 0)
(1.33959936907 1.05616242446e-05 0)
(1.33959793869 9.88372159848e-06 0)
(1.33959617013 7.87350196974e-06 0)
(1.33959392601 3.73001515913e-06 0)
(1.33959008283 -3.00446048981e-06 0)
(1.33958372239 -1.43635868093e-05 0)
(1.33957399649 -3.39585454142e-05 0)
(1.33955839856 -6.60902527074e-05 0)
(1.33953309285 -0.000117982347396 0)
(1.33949183473 -0.00020078670272 0)
(1.33942425884 -0.000331996230946 0)
(1.33931359524 -0.000538801839382 0)
(1.33913270924 -0.000863448239273 0)
(1.33883763302 -0.00137150142206 0)
(1.33835703282 -0.00216434653052 0)
(1.33757509359 -0.00339764084091 0)
(1.33630346446 -0.00530804692303 0)
(1.33423532337 -0.00824934551479 0)
(1.33087207385 -0.0127354664418 0)
(1.32540826459 -0.0194768694202 0)
(1.31656716267 -0.0293642043035 0)
(1.30247288475 -0.0433025014122 0)
(1.28052701649 -0.0618058454142 0)
(1.24680924598 -0.0840650135302 0)
(0.993984924524 0.0187621884726 0)
(1.03408428229 0.0502098569186 0)
(1.08891990223 0.0678730397657 0)
(1.14927869987 0.0718273211507 0)
(1.20659884313 0.0660127280583 0)
(1.25502351101 0.0549691730431 0)
(1.29262572658 0.0423984544064 0)
(1.31997171196 0.0306947785604 0)
(1.3387751506 0.0210371565572 0)
(1.35107308451 0.0137290968338 0)
(1.35875519314 0.00856473813927 0)
(1.36334915291 0.00511824815889 0)
(1.36597926347 0.00292985017339 0)
(1.36741621778 0.00160121275762 0)
(1.36815873398 0.000827902434857 0)
(1.36851410346 0.000396508518177 0)
(1.36866364293 0.000166888907635 0)
(1.36871007462 5.16259843182e-05 0)
(1.36870919182 -1.50531662751e-06 0)
(1.36868980494 -2.21856476684e-05 0)
(1.36866591036 -2.71753853687e-05 0)
(1.36864371342 -2.52712862665e-05 0)
(1.36862539889 -2.0918292446e-05 0)
(1.36861126348 -1.62153877259e-05 0)
(1.36860083263 -1.20404642528e-05 0)
(1.36859339458 -8.66277187918e-06 0)
(1.36858824231 -6.07290013357e-06 0)
(1.36858477227 -4.14728803304e-06 0)
(1.36858251408 -2.73440648725e-06 0)
(1.36858111682 -1.70662933347e-06 0)
(1.36858030362 -9.82614045674e-07 0)
(1.36857986427 -4.97684249995e-07 0)
(1.36857968186 -1.88971908035e-07 0)
(1.36857969041 1.91571986771e-08 0)
(1.36857979876 2.37772123099e-07 0)
(1.36857994518 4.61175491236e-07 0)
(1.36858011526 6.67831122628e-07 0)
(1.36858028731 8.63006900237e-07 0)
(1.36858044449 1.06156845569e-06 0)
(1.36858057509 1.27734807124e-06 0)
(1.3685806713 1.5210612389e-06 0)
(1.36858072789 1.80187298784e-06 0)
(1.36858074086 2.12743858378e-06 0)
(1.36858070654 2.50417075884e-06 0)
(1.36858062087 2.93764134787e-06 0)
(1.36858047897 3.43184814789e-06 0)
(1.36858027663 3.98899387407e-06 0)
(1.36858000671 4.61007885015e-06 0)
(1.36857966162 5.31187681331e-06 0)
(1.3685792374 6.10237390642e-06 0)
(1.36857872812 6.97567347575e-06 0)
(1.36857812489 7.91844040421e-06 0)
(1.36857741247 8.90637625519e-06 0)
(1.36857656192 9.89612935742e-06 0)
(1.36857552447 1.08154633242e-05 0)
(1.36857422399 1.15492486536e-05 0)
(1.36857254341 1.19189537769e-05 0)
(1.36857030434 1.16553200958e-05 0)
(1.36856729241 1.03475457285e-05 0)
(1.36856335711 7.31499005741e-06 0)
(1.36855721848 1.70364800221e-06 0)
(1.36854629456 -6.53800588954e-06 0)
(1.36852866669 -1.97948894627e-05 0)
(1.36850111626 -4.27496392947e-05 0)
(1.36845725365 -8.10964455043e-05 0)
(1.36838706142 -0.000142061421746 0)
(1.36827439442 -0.000237834477118 0)
(1.36809367889 -0.000387434970243 0)
(1.3678042366 -0.000620065866327 0)
(1.36734147386 -0.000980432344787 0)
(1.36660315099 -0.00153656979441 0)
(1.36542812152 -0.00239100629814 0)
(1.36356381007 -0.00369599466276 0)
(1.36061747663 -0.00567245336364 0)
(1.3559862291 -0.00862919004369 0)
(1.34876159526 -0.0129720804004 0)
(1.33761586313 -0.01917554097 0)
(1.32075081757 -0.0276666926119 0)
(1.29591085073 -0.0385933883242 0)
(1.26005227598 -0.051383293151 0)
(0.993241798173 0.00600625586143 0)
(1.03071702161 0.016364166212 0)
(1.08321426777 0.0224277632499 0)
(1.14332132144 0.0240149876032 0)
(1.20244039746 0.0222946398021 0)
(1.25386110987 0.0187260561706 0)
(1.29479462183 0.0145513384903 0)
(1.32520972067 0.0106028331157 0)
(1.34652236702 0.00730857571496 0)
(1.36070153376 0.00479465588597 0)
(1.36970162304 0.00300590848338 0)
(1.37516877505 0.00180513474867 0)
(1.37835030512 0.00103866331389 0)
(1.38012086709 0.000571003002919 0)
(1.38105723743 0.000297453176268 0)
(1.38152075568 0.000144032858455 0)
(1.38172793661 6.18545763544e-05 0)
(1.38180332591 2.02579377547e-05 0)
(1.38181583961 8.3258769471e-07 0)
(1.38180173345 -6.93594939005e-06 0)
(1.38177908741 -9.01319336851e-06 0)
(1.38175639826 -8.54276260164e-06 0)
(1.38173696959 -7.13217234713e-06 0)
(1.38172163121 -5.54821261521e-06 0)
(1.38171013209 -4.11605284381e-06 0)
(1.38170183107 -2.94312170875e-06 0)
(1.38169602079 -2.03354299221e-06 0)
(1.38169206896 -1.34835353678e-06 0)
(1.38168946486 -8.37038232474e-07 0)
(1.38168781736 -4.5757599734e-07 0)
(1.38168683072 -1.80006462608e-07 0)
(1.38168628935 3.43206047229e-08 0)
(1.38168604932 2.21543554428e-07 0)
(1.3816860123 3.8739542205e-07 0)
(1.38168609535 5.25333089369e-07 0)
(1.38168623735 6.62144298208e-07 0)
(1.38168640844 8.04268829764e-07 0)
(1.38168659001 9.5847872618e-07 0)
(1.38168676468 1.13208051292e-06 0)
(1.38168691916 1.33244609069e-06 0)
(1.38168704498 1.56732046495e-06 0)
(1.38168713674 1.84431238542e-06 0)
(1.3816871905 2.17033038187e-06 0)
(1.3816872029 2.55218133968e-06 0)
(1.38168717006 2.99676450974e-06 0)
(1.38168708697 3.51085968423e-06 0)
(1.38168694878 4.10153809063e-06 0)
(1.38168674915 4.7746546448e-06 0)
(1.38168647971 5.53785852828e-06 0)
(1.38168613185 6.39463513776e-06 0)
(1.38168569532 7.34400262266e-06 0)
(1.3816851553 8.38060750308e-06 0)
(1.38168448633 9.49127582102e-06 0)
(1.38168364446 1.06512436915e-05 0)
(1.38168255845 1.18191037139e-05 0)
(1.38168111696 1.29278049721e-05 0)
(1.38167914766 1.38702310789e-05 0)
(1.3816763788 1.44772906797e-05 0)
(1.38167239335 1.44778085668e-05 0)
(1.38166669091 1.33578235832e-05 0)
(1.38165861194 1.00709302943e-05 0)
(1.38164598257 4.16478589586e-06 0)
(1.38162421704 -4.61855039743e-06 0)
(1.38158809193 -1.78053272845e-05 0)
(1.3815316254 -3.75462243447e-05 0)
(1.38144320555 -6.87203031328e-05 0)
(1.38130276851 -0.000117275135292 0)
(1.38107953708 -0.000191639122821 0)
(1.38072524874 -0.000304260035544 0)
(1.38016404913 -0.000473484392529 0)
(1.37927724607 -0.000726164776463 0)
(1.37788033252 -0.00110112548359 0)
(1.37568898488 -0.00165343600326 0)
(1.37227035397 -0.002458800392 0)
(1.36697697914 -0.00361621552639 0)
(1.35886367213 -0.00524472514111 0)
(1.34660002217 -0.00746508671026 0)
(1.32845093471 -0.0103532190991 0)
(1.30233600865 -0.0138726305299 0)
(1.26561055476 -0.0177596175463 0)
(0.99324259482 -0.00600467202586 0)
(1.03071700005 -0.0163626889192 0)
(1.08321419104 -0.0224271010686 0)
(1.14332133813 -0.0240147827483 0)
(1.20244044374 -0.0222946976503 0)