/*--------------------------------*- C++ -*----------------------------------*\
| =========                 |                                                 |
| \\      /  F ield         | OpenFOAM: The Open Source CFD Toolbox           |
|  \\    /   O peration     | Version:  2106                                  |
|   \\  /    A nd           | Website:  www.openfoam.com                      |
|    \\/     M anipulation  |                                                 |
\*---------------------------------------------------------------------------*/
FoamFile
{
    version     2.0;
    format      ascii;
    arch        "LSB;label=32;scalar=64";
    class       surfaceScalarField;
    location    "0.205";
    object      phi;
}
// * * * * * * * * * * * * * * * * * * * * * * * * * * * * * * * * * * * * * //

dimensions      [0 3 -1 0 0 0 0];

oriented        oriented;

internalField   nonuniform List<scalar> 
22100
(
3.38461201909e-05
1.61538798054e-05
2.24572092848e-05
1.13889105077e-05
1.62585520504e-05
6.19865690706e-06
1.27977747413e-05
3.46077699973e-06
1.0804640554e-05
1.99313388839e-06
9.60458723737e-06
1.20005303073e-06
8.85131921062e-06
7.53267756464e-07
8.36435014541e-06
4.86968805007e-07
8.04433202851e-06
3.20017870963e-07
7.83283700659e-06
2.11494789762e-07
7.69339361302e-06
1.39443168223e-07
7.60223648657e-06
9.11569054578e-08
7.54347345107e-06
5.87628156082e-08
7.50633626467e-06
3.71369612648e-08
7.48349646694e-06
2.28395640343e-08
7.46997534468e-06
1.35208842248e-08
7.46241042287e-06
7.56468986271e-09
7.45854210923e-06
3.86809816688e-09
7.45682290245e-06
1.7190231096e-09
7.45641604067e-06
4.06710707238e-10
7.45676565851e-06
-3.49734355887e-10
7.4574516564e-06
-6.86087558879e-10
7.45820981575e-06
-7.58240706042e-10
7.4589349236e-06
-7.251952609e-10
7.45957902342e-06
-6.44207288208e-10
7.46012274357e-06
-5.43850798926e-10
7.46056465559e-06
-4.42060359449e-10
7.46091323165e-06
-3.48730253544e-10
7.46118139587e-06
-2.68307161478e-10
7.46138324904e-06
-2.01965820153e-10
7.46153218068e-06
-1.4899591831e-10
7.46163989542e-06
-1.07725019645e-10
7.46171610445e-06
-7.61691839863e-11
7.46176891341e-06
-5.2735710943e-11
7.46180225129e-06
-3.32521237848e-11
7.46182108456e-06
-1.87573002178e-11
7.4618301632e-06
-9.02908851332e-12
7.46183292365e-06
-2.74629472981e-12
7.46183131987e-06
1.57869820865e-12
7.46182650526e-06
4.7517362106e-12
7.46181943953e-06
6.98155992207e-12
7.46181075016e-06
8.604089423e-12
7.46180082575e-06
9.86586487992e-12
7.46178984912e-06
1.09667377375e-11
7.46177782462e-06
1.2072056736e-11
7.46176461766e-06
1.33026309428e-11
7.46174998453e-06
1.47655166831e-11
7.46173358194e-06
1.65636856807e-11
7.46171495614e-06
1.88031779408e-11
7.46169355992e-06
2.15717627161e-11
7.46166877076e-06
2.49388878658e-11
7.46163988024e-06
2.90013690417e-11
7.46160609252e-06
3.38582782977e-11
7.46156654227e-06
3.95893736789e-11
7.46152035464e-06
4.62190308815e-11
7.46146671182e-06
5.36900783996e-11
7.46140490225e-06
6.18910516341e-11
7.46133472324e-06
7.0305168919e-11
7.46125683182e-06
7.80625491825e-11
7.46117357165e-06
8.34829062884e-11
7.46109086635e-06
8.29364879407e-11
7.46102125891e-06
6.98976031702e-11
7.46097265169e-06
4.88439775271e-11
7.46096382276e-06
9.04230669426e-12
7.46103058503e-06
-6.66154348839e-11
7.46123118906e-06
-2.00505248212e-10
7.46166024833e-06
-4.28976248296e-10
7.46246809269e-06
-8.07749827181e-10
7.46389046487e-06
-1.42227600804e-09
7.4662837182e-06
-2.39314801104e-09
7.47009864163e-06
-3.81478003128e-09
7.47654882616e-06
-6.44998402138e-09
7.48733052317e-06
-1.07814208124e-08
7.5055323531e-06
-1.82015000428e-08
7.53877473107e-06
-3.32420186725e-08
7.60811239162e-06
-6.9337297144e-08
7.77507080239e-06
-1.66958048431e-07
8.23080270268e-06
-4.55731594166e-07
9.70124484919e-06
-1.4704417755e-06
-5.46393098658e-06
1.51651766097e-05
5.02175946609e-05
1.59362847512e-05
4.42441109812e-05
1.73623935344e-05
3.77795004826e-05
1.26632668359e-05
3.2646142642e-05
8.59413430134e-06
2.89380901791e-05
5.70118583665e-06
2.63596194501e-05
3.77852326931e-06
2.45875147362e-05
2.52537201341e-06
2.3373472399e-05
1.70101071264e-06
2.25435230938e-05
1.14996676496e-06
2.19782141731e-05
7.76803311302e-07
2.15955114215e-05
5.22145521576e-07
2.1338734638e-05
3.47933283004e-07
2.11684928959e-05
2.29004140261e-07
2.10573350629e-05
1.48294366961e-07
2.09861469271e-05
9.40272740433e-08
2.09416743401e-05
5.7993064249e-08
2.09147923439e-05
3.44463148337e-08
2.08992931002e-05
1.93670270672e-08
2.08910692019e-05
9.94266342746e-09
2.08872688476e-05
4.20686472425e-09
2.08861997571e-05
7.19200055514e-10
2.08864453817e-05
-9.3185323333e-10
2.08873166997e-05
-1.62970671331e-09
2.08884560519e-05
-1.86472557769e-09
2.08896292053e-05
-1.81757471416e-09
2.08907120037e-05
-1.62688985886e-09
2.08916494077e-05
-1.37971016189e-09
2.08924267665e-05
-1.12631286626e-09
2.08930518683e-05
-8.93581480818e-10
2.0893543944e-05
-6.94141401901e-10
2.08939277787e-05
-5.32850619346e-10
2.08942293865e-05
-4.09279101707e-10
2.08944404654e-05
-2.87148726534e-10
2.08945876398e-05
-1.99798089268e-10
2.08946881143e-05
-1.33630335708e-10
2.08947535651e-05
-8.41528036495e-11
2.08947941427e-05
-4.96102025275e-11
2.08948180156e-05
-2.66867803287e-11
2.08948300067e-05
-1.05296064025e-11
2.08948330666e-05
1.55137630047e-12
2.08948296381e-05
1.02868793169e-11
2.08948214117e-05
1.67644224389e-11
2.08948095432e-05
2.17477018326e-11
2.08947947428e-05
2.58599219995e-11
2.08947773633e-05
2.96143321969e-11
2.08947575222e-05
3.3365643936e-11
2.0894735182e-05
3.73718078076e-11
2.08947101936e-05
4.18417900582e-11
2.08946823037e-05
4.69741894539e-11
2.08946512163e-05
5.28934243082e-11
2.08946166785e-05
5.96350449858e-11
2.08945785254e-05
6.72437574002e-11
2.08945367646e-05
7.56857352596e-11
2.08944916864e-05
8.4746111585e-11
2.08944441016e-05
9.39140353372e-11
2.08943957443e-05
1.0219946412e-10
2.08943497614e-05
1.08087153918e-10
2.08943119325e-05
1.08433411292e-10
2.08942916491e-05
9.8715564073e-11
2.08943039217e-05
7.16714852939e-11
2.08943747319e-05
1.25220145112e-11
2.08945537867e-05
-1.087419413e-10
2.08949089112e-05
-3.05992794474e-10
2.08955579751e-05
-6.39717033799e-10
2.08966129524e-05
-1.12130673097e-09
2.0898246503e-05
-1.83383760175e-09
2.09008173482e-05
-2.99964705377e-09
2.09048744797e-05
-4.8647083679e-09
2.09112889336e-05
-7.83650192001e-09
2.09214877745e-05
-1.2591665717e-08
2.09379673336e-05
-2.0293920312e-08
2.09648836369e-05
-3.33657750715e-08
2.10091943702e-05
-5.50915796448e-08
2.10841075146e-05
-9.31140553797e-08
2.12156173958e-05
-1.6475135188e-07
2.14567741136e-05
-3.10493535365e-07
2.19157526932e-05
-6.25936318961e-07
2.280520552e-05
-1.34518454205e-06
2.4454431223e-05
-3.11966762192e-06
-7.05915884523e-06
2.60496617226e-05
5.35171050832e-05
1.24191793356e-05
5.29349675758e-05
1.79445304655e-05
4.96538389392e-05
1.59443949711e-05
4.58401798329e-05
1.24077929293e-05
4.24400904002e-05
9.10127481887e-06
3.97291700311e-05
6.48944321659e-06
3.76873031713e-05
4.56723847712e-06
3.61976599835e-05
3.19065352376e-06
3.5132609008e-05
2.21501737828e-06
3.43823636285e-05
1.52704833446e-06
3.38606223251e-05
1.04388646502e-06
3.35023417655e-05
7.06213474776e-07
3.32595965461e-05
4.7174898368e-07
3.30975859243e-05
3.10304608131e-07
3.2991329538e-05
2.00283284203e-07
3.29230873601e-05
1.26234882916e-07
3.28803991288e-05
7.71342202314e-08
3.28546137343e-05
4.51521412039e-08
3.28397863995e-05
2.47697731864e-08
3.28318596928e-05
1.21333982906e-08
3.2827990047e-05
4.58870746808e-09
3.2826991221e-05
6.68501349623e-11
3.28271718023e-05
-1.81042151827e-09
3.2828019992e-05
-2.71307448219e-09
3.28291355072e-05
-2.93327964144e-09
3.28302824724e-05
-2.77406654606e-09
3.28313381566e-05
-2.43560975721e-09
3.28322482765e-05
-2.03662980974e-09
3.2832998008e-05
-1.64346667502e-09
3.28335934558e-05
-1.28968304123e-09
3.28340495704e-05
-9.88989198023e-10
3.28343844256e-05
-7.44096122371e-10
3.28346507056e-05
-5.53352826976e-10
3.28348669543e-05
-4.15952303183e-10
3.2835014063e-05
-2.80665944177e-10
3.28351131524e-05
-1.83200980237e-10
3.2835178825e-05
-1.15294257997e-10
3.28352205104e-05
-6.84307353767e-11
3.28352450962e-05
-3.52088441604e-11
3.28352565623e-05
-1.00168863826e-11
3.28352584901e-05
8.27702232683e-12
3.28352533924e-05
2.18238429001e-11
3.28352431022e-05
3.20578226905e-11
3.28352288417e-05
4.02038823593e-11
3.28352113483e-05
4.72479273478e-11
3.28351910741e-05
5.38362044919e-11
3.28351682969e-05
6.0392794933e-11
3.2835143169e-05
6.72288183187e-11
3.28351156885e-05
7.46884685471e-11
3.28350858754e-05
8.28929029959e-11
3.28350540158e-05
9.16378784153e-11
3.28350206744e-05
1.00697372587e-10
3.2834986835e-05
1.09612789338e-10
3.28349541977e-05
1.17462735726e-10
3.28349256648e-05
1.22541125542e-10
3.28349059341e-05
1.22068661576e-10
3.28349017746e-05
1.12451449097e-10
3.28349243091e-05
8.61917875996e-11
3.28349907115e-05
3.2659803067e-11
3.28351302484e-05
-6.7424548869e-11
3.2835393974e-05
-2.50832571013e-10
3.28358696284e-05
-5.83940084998e-10
3.28365777465e-05
-1.01374527488e-09
3.28376072668e-05
-1.6689127027e-09
3.28392134606e-05
-2.72727166927e-09
3.2841776631e-05
-4.39685315508e-09
3.28458008649e-05
-7.02373306908e-09
3.28521016412e-05
-1.11652905763e-08
3.28619943868e-05
-1.77289902534e-08
3.28776482483e-05
-2.82452137114e-08
3.29027324041e-05
-4.53777036531e-08
3.2942613162e-05
-7.32460982859e-08
3.30071481559e-05
-1.19626075216e-07
3.31133711199e-05
-1.99336502585e-07
3.32903900094e-05
-3.417697364e-07
3.35865843716e-05
-6.06687407532e-07
3.40733494238e-05
-1.11270096403e-06
3.48173333106e-05
-2.08916826085e-06
3.56828676191e-05
-3.98520385625e-06
-7.13298173102e-06
3.57566835359e-05
5.35105661939e-05
8.90861282945e-06
5.55742214526e-05
1.588087464e-05
5.52424812863e-05
1.62761346482e-05
5.35977843056e-05
1.40524894449e-05
5.15418456317e-05
1.11572130498e-05
4.95802774708e-05
8.45101096133e-06
4.79243480789e-05
6.22316747774e-06
4.66181358538e-05
4.49686537445e-06
4.56304627189e-05
3.20269015118e-06
4.49051134513e-05
2.25239724575e-06
4.43840859499e-05
1.56491360837e-06
4.40166894902e-05
1.07360957163e-06
4.37619626873e-05
7.26475418991e-07
4.3588263772e-05
4.84003154889e-07
4.34718641099e-05
3.16682585802e-07
4.33953537513e-05
2.02744899957e-07
4.33461832127e-05
1.26304450596e-07
4.33154453735e-05
7.58897156983e-08
4.32969088165e-05
4.33061154331e-08
4.32862825937e-05
2.27594491125e-08
4.32806796253e-05
1.01915341953e-08
4.32778718342e-05
2.87450473592e-09
4.32770438909e-05
-9.82627622768e-10
4.32772616265e-05
-2.93098444195e-09
4.32779489872e-05
-3.62084043144e-09
4.32788118515e-05
-3.6371482814e-09
4.32796844649e-05
-3.30844106158e-09
4.3280481734e-05
-2.83409364195e-09
4.328116733e-05
-2.32921218232e-09
4.32817330545e-05
-1.85549184976e-09
4.32821857428e-05
-1.44169143329e-09
4.32825380808e-05
-1.09639147565e-09
4.32827998038e-05
-8.14988127457e-10
4.32829751767e-05
-5.91235833711e-10
4.32831081848e-05
-4.13597074664e-10
4.32831935425e-05
-2.68524535412e-10
4.32832474569e-05
-1.69222667322e-10
4.32832871534e-05
-1.08190653213e-10
4.32833114421e-05
-5.95908200793e-11
4.32833233278e-05
-2.20076859023e-11
4.32833262491e-05
5.26917708592e-12
4.32833221793e-05
2.58510662672e-11
4.32833128334e-05
4.14189807056e-11
4.32832993641e-05
5.37574987003e-11
4.32832824037e-05
6.43559303366e-11
4.32832623672e-05
7.40737381591e-11
4.32832395588e-05
8.34383581129e-11
4.32832142223e-05
9.2804255088e-11
4.32831866719e-05
1.02440579551e-10
4.32831574564e-05
1.1226837897e-10
4.3283127173e-05
1.22032887082e-10
4.32830967785e-05
1.31180358971e-10
4.32830677227e-05
1.38745698808e-10
4.32830421093e-05
1.43158872483e-10
4.32830228754e-05
1.41893170871e-10
4.32830142656e-05
1.30870542002e-10
4.32830237794e-05
1.03232886819e-10
4.32830632744e-05
4.70966997903e-11
4.32831517676e-05
-5.5410772193e-11
4.32833088115e-05
-2.24016716799e-10
4.32835337966e-05
-4.75383303758e-10
4.32839661537e-05
-1.01599713934e-09
4.32847195563e-05
-1.7668987031e-09
4.3285954531e-05
-2.90365172283e-09
4.32878770673e-05
-4.6496090281e-09
4.32908361409e-05
-7.35576537055e-09
4.32953915821e-05
-1.15790067932e-08
4.33024230549e-05
-1.81965580477e-08
4.33133150283e-05
-2.86207139687e-08
4.33302301681e-05
-4.51600643716e-08
4.33564866466e-05
-7.16338489328e-08
4.33976704884e-05
-1.14429548001e-07
4.34626608405e-05
-1.84615984906e-07
4.35652307125e-05
-3.01905906975e-07
4.37254176883e-05
-5.01956226273e-07
4.3967951772e-05
-8.49221074647e-07
4.43096900018e-05
-1.45443881569e-06
4.47121290355e-05
-2.49160600739e-06
4.49342934718e-05
-4.20736655346e-06
-6.60625646709e-06
4.44075650986e-05
5.27351377236e-05
6.1734747952e-06
5.57309336324e-05
1.28850781666e-05
5.73114730001e-05
1.46955947894e-05
5.76109900624e-05
1.37529719162e-05
5.71335204962e-05
1.16346821719e-05
5.63194656328e-05
9.26506540539e-06
5.54489851751e-05
7.09364753961e-06
5.46629743654e-05
5.28287580382e-06
5.40136785816e-05
3.85198556616e-06
5.35061470484e-05
2.75992841602e-06
5.31242509482e-05
1.94680934491e-06
5.28449812411e-05
1.35287891212e-06
5.26454348512e-05
9.26021440544e-07
5.25057104808e-05
6.23727159147e-07
5.24097156042e-05
4.12677104042e-07
5.2345009511e-05
2.67450656317e-07
5.23022716345e-05
1.69042023761e-07
5.22746844463e-05
1.03476642106e-07
5.22573598961e-05
6.06304471562e-08
5.22468512093e-05
3.3267956046e-08
5.22407514806e-05
1.62911039427e-08
5.2237442515e-05
6.18331387783e-09
5.22359436737e-05
5.16043827244e-10
5.22354354581e-05
-2.42295976992e-09
5.22355000685e-05
-3.68566268324e-09
5.22358451353e-05
-3.98243883488e-09
5.22362989623e-05
-3.76248669702e-09
5.2236764939e-05
-3.30025760706e-09
5.22371919896e-05
-2.75639538226e-09
5.2237557407e-05
-2.22097296488e-09
5.22378544906e-05
-1.7387714405e-09
5.22380860196e-05
-1.32785888225e-09
5.22382622541e-05
-9.91131901011e-10
5.22383950828e-05
-7.23969009066e-10
5.22384953705e-05
-5.1381530429e-10
5.22385798669e-05
-3.52991696277e-10
5.22386452747e-05
-2.34652613896e-10
5.22386874164e-05
-1.50392883468e-10
5.22387200107e-05
-9.22778920564e-11
5.223873525e-05
-3.73413270752e-11
5.22387403202e-05
1.30331635435e-13
5.22387378041e-05
2.83476106689e-11
5.22387296539e-05
4.96092573548e-11
5.22387172004e-05
6.63125102803e-11
5.22387013008e-05
8.04198121142e-11
5.22386825236e-05
9.30699930206e-11
5.22386613849e-05
1.04822518029e-10
5.22386387805e-05
1.15646835132e-10
5.22386144031e-05
1.27043776813e-10
5.22385875002e-05
1.39344626813e-10
5.2238559483e-05
1.50187970894e-10
5.22385313984e-05
1.59370939488e-10
5.22385047512e-05
1.65477428058e-10
5.22384819065e-05
1.6609168483e-10
5.22384671893e-05
1.56738889411e-10
5.22384720199e-05
1.26248094324e-10
5.22384992193e-05
7.63713969725e-11
5.22385674417e-05
-2.07553211945e-11
5.22386822926e-05
-1.69878382915e-10
5.22388642971e-05
-4.05776847281e-10
5.22391950171e-05
-8.05662098204e-10
5.22396975088e-05
-1.51821258465e-09
5.22404527278e-05
-2.52185625366e-09
5.22415920099e-05
-4.04270251293e-09
5.22433180779e-05
-6.37548401978e-09
5.2245932164e-05
-9.96967941433e-09
5.22498861304e-05
-1.55327865096e-08
5.22558713252e-05
-2.41815316566e-08
5.22649477183e-05
-3.76968592437e-08
5.22787358065e-05
-5.89478734473e-08
5.22997000202e-05
-9.25977357892e-08
5.23315669999e-05
-1.46296149372e-07
5.23797001834e-05
-2.32748775707e-07
5.24510599665e-05
-3.73265284787e-07
5.25525634547e-05
-6.03459321125e-07
5.26848287115e-05
-9.81486064654e-07
5.28257014914e-05
-1.59531133053e-06
5.28936814203e-05
-2.55958557914e-06
5.26759767111e-05
-3.98966003654e-06
-5.79699100698e-06
5.18667097579e-05
5.19834861875e-05
4.18998829475e-06
5.50586631559e-05
9.80990063463e-06
5.76386119201e-05
1.21156455347e-05
5.93259014156e-05
1.2065681955e-05
6.02280130184e-05
1.07325701254e-05
6.05929237888e-05
8.9001542135e-06
6.0648280313e-05
7.03829061484e-06
6.05531854694e-05
5.37797025979e-06
6.04029505195e-05
4.00222013781e-06
6.0247909646e-05
2.91496891599e-06
6.0110783755e-05
2.08393486313e-06
5.99990238745e-05
1.46463841899e-06
5.99125083461e-05
1.0125365968e-06
5.9847916106e-05
6.88319033798e-07
5.98010121986e-05
4.59580659909e-07
5.97677272214e-05
3.0073530533e-07
5.97445855619e-05
1.92183388795e-07
5.9728806742e-05
1.19255209281e-07
5.9718258348e-05
7.11786255717e-08
5.97113519376e-05
4.01741804709e-08
5.97069323869e-05
2.07104853785e-08
5.97041982909e-05
8.91724179847e-09
5.97025890474e-05
2.12510803455e-09
5.97016842801e-05
-1.51839035684e-09
5.97012257311e-05
-3.22732906793e-09
5.97010359452e-05
-3.79287446894e-09
5.97009994057e-05
-3.7261573514e-09
5.97010434735e-05
-3.34450561912e-09
5.97011244489e-05
-2.83749628592e-09
5.97012166731e-05
-2.31325416313e-09
5.97013062638e-05
-1.8283537164e-09
5.97013865894e-05
-1.40812737158e-09
5.97014562044e-05
-1.06066343221e-09
5.97015156857e-05
-7.83371982604e-10
5.97015658197e-05
-5.63895419993e-10
5.97016054855e-05
-3.9264316467e-10
5.97016331193e-05
-2.62309905091e-10
5.97016482463e-05
-1.65583555711e-10
5.97016463986e-05
-9.05144220827e-11
5.97016381656e-05
-2.91898223455e-11
5.97016313963e-05
6.84607211852e-12
5.97016219476e-05
3.77910387068e-11
5.97016114694e-05
6.01490794398e-11
5.97015997712e-05
7.81256541317e-11
5.97015857868e-05
9.45710856442e-11
5.97015693164e-05
1.09739054701e-10
5.97015503192e-05
1.24025039043e-10
5.9701528508e-05
1.37662268031e-10
5.97015050428e-05
1.50676278757e-10
5.97014818445e-05
1.62693203156e-10
5.97014590996e-05
1.7306067082e-10
5.97014380728e-05
1.80506439994e-10
5.97014205122e-05
1.8314823124e-10
5.97014083086e-05
1.78447609886e-10
5.9701401918e-05
1.63367724241e-10
5.97013930861e-05
1.35395791292e-10
5.97013925842e-05
7.70957251836e-11
5.97014031265e-05
-3.09870978527e-11
5.97014689089e-05
-2.35264242369e-10
5.97016460302e-05
-5.82520220899e-10
5.97019357266e-05
-1.09496577426e-09
5.97023091933e-05
-1.89138821123e-09
5.97028695373e-05
-3.08189982052e-09
5.97036996607e-05
-4.8725746155e-09
5.97049126696e-05
-7.58828468123e-09
5.97066726745e-05
-1.17294848296e-08
5.97092169071e-05
-1.80768049755e-08
5.97128880983e-05
-2.78524906958e-08
5.97181747433e-05
-4.29832587817e-08
5.97257571043e-05
-6.65299599423e-08
5.97365378733e-05
-1.0337817656e-07
5.97515796674e-05
-1.61337546082e-07
5.97717225285e-05
-2.52891209601e-07
5.97963797314e-05
-3.97921995587e-07
5.9820397914e-05
-6.27476997562e-07
5.98268906413e-05
-9.87978495806e-07
5.97737550695e-05
-1.54217553365e-06
5.95728696938e-05
-2.35870028481e-06
5.90659029085e-05
-3.48269199461e-06
-4.82262880903e-06
5.80915400799e-05
5.14373050881e-05
2.75268289372e-06
5.42658197549e-05
6.98138540514e-06
5.72496419412e-05
9.13182285984e-06
5.97900258289e-05
9.5252976031e-06
6.17201258661e-05
8.80246964568e-06
6.30883003723e-05
7.53197928554e-06
6.40167135075e-05
6.10987707672e-06
6.46292328943e-05
4.76545048239e-06
6.50257994544e-05
3.60565319618e-06
6.52790736433e-05
2.66169435151e-06
6.54389683146e-05
1.92403981916e-06
6.55386847779e-05
1.36492158647e-06
6.55999229624e-05
9.51298049016e-07
6.56367374424e-05
6.51504200394e-07
6.56581882297e-05
4.38129535875e-07
6.56700961689e-05
2.88827053573e-07
6.56761851595e-05
1.86094116389e-07
6.5678821259e-05
1.16618862634e-07
6.56794915285e-05
7.05081414466e-08
6.56791151849e-05
4.05503326528e-08
6.56782476701e-05
2.15778209453e-08
6.56772166388e-05
9.94809390509e-09
6.56762072653e-05
3.13429157709e-09
6.56752978344e-05
-6.09165913414e-10
6.5674528986e-05
-2.45869991019e-09
6.56739004679e-05
-3.16458055462e-09
6.56734014229e-05
-3.22731988129e-09
6.56730144055e-05
-2.95765663041e-09
6.56727204456e-05
-2.54364501875e-09
6.56725013832e-05
-2.09423423984e-09
6.56723411006e-05
-1.66805022803e-09
6.56722259052e-05
-1.29287331206e-09
6.56721436413e-05
-9.78327029257e-10
6.56720836697e-05
-7.23337331891e-10
6.56720401975e-05
-5.20387299265e-10
6.56720089846e-05
-3.61427323868e-10
6.56719839013e-05
-2.3726243353e-10
6.56719622767e-05
-1.44025882694e-10
6.56719472436e-05
-7.55635000299e-11
6.56719454371e-05
-2.74557897462e-11
6.5671943842e-05
8.40500895187e-12
6.56719364143e-05
4.52430537198e-11
6.56719261874e-05
7.04547217903e-11
6.56719135523e-05
9.0899317821e-11
6.56718993482e-05
1.08960260786e-10
6.5671883556e-05
1.25742038489e-10
6.56718659914e-05
1.41809964248e-10
6.56718465541e-05
1.57294352878e-10
6.56718260086e-05
1.71392030822e-10
6.56718060588e-05
1.82777385383e-10
6.56717855451e-05
1.93668963268e-10
6.56717650629e-05
2.01056928206e-10
6.5671745717e-05
2.02577094088e-10
6.56717292917e-05
1.95037416494e-10
6.56717191181e-05
1.73833013943e-10
6.56717221579e-05
1.32591407596e-10
6.56717315419e-05
6.79531147314e-11
6.56717488638e-05
-4.79833505297e-11
6.56718154249e-05
-3.01543580664e-10
6.5671904834e-05
-6.71596260513e-10
6.56720445041e-05
-1.23435698806e-09
6.56722405039e-05
-2.08711948493e-09
6.56725084755e-05
-3.34960209654e-09
6.56728643181e-05
-5.22818201487e-09
6.56733179122e-05
-8.0416683243e-09
6.56738654913e-05
-1.22768470472e-08
6.5674475599e-05
-1.86866800574e-08
6.56750598075e-05
-2.84364625027e-08
6.56754133951e-05
-4.33366062388e-08
6.56751046184e-05
-6.6220912385e-08
6.56732608255e-05
-1.01534070922e-07
6.5668135907e-05
-1.56212265053e-07
6.56561798314e-05
-2.4093475459e-07
6.56302399136e-05
-3.71981653179e-07
6.55761217614e-05
-5.73358409669e-07
6.54665099533e-05
-8.78366291958e-07
6.52520759417e-05
-1.32774123913e-06
6.48524603673e-05
-1.95908477364e-06
6.41546155565e-05
-2.7848463756e-06
-3.7353652336e-06
6.30673518174e-05
5.10850420783e-05
1.66764050286e-06
5.36118437422e-05
4.45458318002e-06
5.6687315194e-05
6.05635092272e-06
5.96894447529e-05
6.52316758288e-06
6.22997249241e-05
6.19218903383e-06
6.44136860652e-05
5.41801772311e-06
6.60471818042e-05
4.4763809328e-06
6.7268612965e-05
3.54401892679e-06
6.81598916392e-05
2.71437413603e-06
6.87977579031e-05
2.02382770864e-06
6.92467419755e-05
1.47505537363e-06
6.95579605385e-05
1.05370265797e-06
6.97704269806e-05
7.38831251497e-07
6.99131698546e-05
5.08760984057e-07
7.00073808306e-05
3.43918235745e-07
7.00682903267e-05
2.27917257484e-07
7.01066923528e-05
1.47691820127e-07
7.01301347063e-05
9.31762688544e-08
7.014382392e-05
5.68187142911e-08
7.01513001336e-05
3.30739250897e-08
7.01549327311e-05
1.79450382883e-08
7.0156280626e-05
8.60001182928e-09
7.01563526188e-05
3.06210100598e-09
7.01557606261e-05
-1.73823824757e-11
7.01548998147e-05
-1.59811056863e-09
7.01539762519e-05
-2.24123533632e-09
7.01531076709e-05
-2.35893504491e-09
7.01523477505e-05
-2.19788724351e-09
7.01517137109e-05
-1.90969585396e-09
7.01512026976e-05
-1.58325040117e-09
7.01508017706e-05
-1.26710344263e-09
7.01504939585e-05
-9.85012807063e-10
7.01502616018e-05
-7.45919310697e-10
7.01500885185e-05
-5.50215752855e-10
7.01499617009e-05
-3.93557626687e-10
7.01498704939e-05
-2.70239555101e-10
7.01498078013e-05
-1.7462111173e-10
7.01497661801e-05
-1.02480458552e-10
7.01497375283e-05
-4.69927541531e-11
7.01497074202e-05
2.59429721379e-12
7.01496839817e-05
3.18322895272e-11
7.01496709797e-05
5.82810868714e-11
7.01496604561e-05
8.10613984739e-11
7.01496505168e-05
1.00959718218e-10
7.01496404044e-05
1.19221942222e-10
7.0149629722e-05
1.36583761283e-10
7.01496183122e-05
1.53375148536e-10
7.01496061952e-05
1.69562165019e-10
7.01495929362e-05
1.84788873364e-10
7.01495773753e-05
1.9845730161e-10
7.0149561456e-05
2.09690949073e-10
7.01495458847e-05
2.16733532039e-10
7.01495314397e-05
2.17182351814e-10
7.01495188133e-05
2.07920819554e-10
7.01495078364e-05
1.85058987039e-10
7.01494965305e-05
1.44164697998e-10
7.01494806722e-05
8.42936628918e-11
7.01494766104e-05
-4.36845148415e-11
7.0149475655e-05
-3.00178159187e-10
7.01494900057e-05
-6.8564391385e-10
7.01495040529e-05
-1.24820994497e-09
7.01494945317e-05
-2.07733243856e-09
7.01494335211e-05
-3.2883409901e-09
7.01492668393e-05
-5.06126650954e-09
7.01488941289e-05
-7.66872632363e-09
7.01481381707e-05
-1.15206491751e-08
7.01466959068e-05
-1.72441592428e-08
7.0144050981e-05
-2.57912841678e-08
7.01393222914e-05
-3.86076682963e-08
7.01310205239e-05
-5.791886773e-08
7.01166501939e-05
-8.71634281947e-08
7.00920295737e-05
-1.3159133895e-07
7.00500352631e-05
-1.98940119681e-07
6.99786426289e-05
-3.00588672067e-07
6.98578010608e-05
-4.52516512945e-07
6.96549235706e-05
-6.75488360471e-07
6.93198565342e-05
-9.92673826349e-07
6.87826513427e-05
-1.42187953673e-06
6.79600829153e-05
-1.96227741786e-06
-2.56840077704e-06
6.67931185071e-05
5.08804129123e-05
7.87227279565e-07
5.31704653719e-05
2.16453016386e-06
5.62177484655e-05
3.00906734805e-06
5.94382680193e-05
3.30264757105e-06
6.24449673944e-05
3.18548921917e-06
6.5038250379e-05
2.82473431523e-06
6.71548635232e-05
2.35976737892e-06
6.88135615973e-05
1.88532045101e-06
7.00731671857e-05
1.45476815426e-06
7.10056637453e-05
1.09133076394e-06
7.1681259646e-05
7.9945909736e-07
7.21614186271e-05
5.73543313081e-07
7.2496599199e-05
4.03650330954e-07
7.27264754199e-05
2.78884432173e-07
7.28812740113e-05
1.89119333947e-07
7.29834634899e-05
1.25727492576e-07
7.30494070317e-05
8.17480191187e-08
7.30908089341e-05
5.17741334123e-08
7.31159027034e-05
3.17247335519e-08
7.31303870668e-05
1.85893650428e-08
7.31381416396e-05
1.01902738381e-08
7.31417619285e-05
4.97952716023e-09
7.31429494693e-05
1.87435599677e-09
7.31428029438e-05
1.28924515655e-10
7.31419795326e-05
-7.74920639903e-10
7.31408964599e-05
-1.15837463766e-09
7.31397814468e-05
-1.24410584044e-09
7.31387539149e-05
-1.1704917885e-09
7.31378663297e-05
-1.02218866626e-09
7.31371326003e-05
-8.49542631951e-10
7.31365453277e-05
-6.79812768989e-10
7.31360871066e-05
-5.26751996535e-10
7.31357370484e-05
-3.95821906718e-10
7.31354745105e-05
-2.87654558901e-10
7.3135281145e-05
-2.00190715864e-10
7.31351413176e-05
-1.30441929721e-10
7.3135041776e-05
-7.5137507573e-11
7.31349699795e-05
-3.07554322063e-11
7.31349167323e-05
6.19875267049e-12
7.31348868631e-05
3.24395933515e-11
7.31348636089e-05
5.51109758267e-11
7.3134846712e-05
7.52506407517e-11
7.31348342706e-05
9.36129512891e-11
7.31348244708e-05
1.10896368582e-10
7.31348160285e-05
1.27814547002e-10
7.31348080469e-05
1.44725609588e-10
7.31347998849e-05
1.61680276555e-10
7.31347910979e-05
1.78459838682e-10
7.31347814274e-05
1.945383706e-10
7.31347708175e-05
2.09128095305e-10
7.31347593142e-05
2.21256044169e-10
7.31347469853e-05
2.29165789363e-10
7.3134733932e-05
2.30430475517e-10
7.31347202457e-05
2.21866165614e-10
7.31347061612e-05
1.99365897182e-10
7.31346922935e-05
1.5845189774e-10
7.31346798054e-05
9.69870698602e-11
7.31346529012e-05
-1.64282294352e-11
7.31346081006e-05
-2.55057379195e-10
7.31345368345e-05
-6.14141806265e-10
7.31344160844e-05
-1.12724913057e-09
7.31342023168e-05
-1.86331993789e-09
7.31338265239e-05
-2.91230019235e-09
7.3133172723e-05
-4.4072147382e-09
7.31320461941e-05
-6.54193638788e-09
7.3130122331e-05
-9.59651194689e-09
7.31268736803e-05
-1.39952187691e-08
7.3121437963e-05
-2.0355277023e-08
7.31123925777e-05
-2.95620032846e-08
7.3097422607e-05
-4.29486280067e-08
7.30728124294e-05
-6.25529430292e-08
7.30326241711e-05
-9.14028032584e-08
7.29672950403e-05
-1.33610676171e-07
7.2861732902e-05
-1.95026150638e-07
7.26926493907e-05
-2.83432701494e-07
7.24253473613e-05
-4.08185923633e-07
7.20111521247e-05
-5.78478175576e-07
7.13883806751e-05
-7.99107946628e-07
7.0490761073e-05
-1.06465743397e-06
-1.35030962148e-06
6.92726700832e-05
5.0787172321e-05
5.46498860734e-11
5.29516490556e-05
5.28783570091e-11
5.59606872111e-05
2.87164894635e-11
5.92633202157e-05
1.41107591383e-11
6.24488063089e-05
2.68594860069e-12
6.52735463666e-05
-6.16909122073e-12
6.76333253957e-05
-1.20666259789e-11
6.9518660456e-05
-1.50183831517e-11
7.09734436749e-05
-1.5465079071e-11
7.20647880506e-05
-1.40014141959e-11
7.28642580285e-05
-1.12562879965e-11
7.3437808862e-05
-7.8794669018e-12
7.38414633781e-05
-4.52543123874e-12
7.41203493258e-05
-1.83509341829e-12
7.43094687544e-05
-3.91764110317e-13
7.44351965721e-05
-5.99476780181e-13
7.45169470501e-05
-2.70946339835e-12
7.45687274367e-05
-6.48217975616e-12
7.46004632432e-05
-1.1285224984e-11
7.46190685501e-05
-1.61444062914e-11
7.46292785611e-05
-1.99384414429e-11
7.46342794599e-05
-2.15778149205e-11
7.46361741993e-05
-2.05999448268e-11
7.46363211799e-05
-1.82784174572e-11
7.46355618188e-05
-1.57812445315e-11
7.46344159011e-05
-1.26630675791e-11
7.46331807084e-05
-9.08316865946e-12
7.46320152012e-05
-5.10259645164e-12
7.46309931872e-05
-2.37317240943e-13
7.46301397511e-05
3.88296939252e-12
7.46294513522e-05
8.60768090821e-12
7.46289109834e-05
1.36504691438e-11
7.46284962278e-05
1.89596470813e-11
7.46281839856e-05
2.45912286466e-11
7.46279530449e-05
3.07272494641e-11
7.46277850583e-05
3.749442247e-11
7.46276648676e-05
4.49845846527e-11
7.46275808511e-05
5.31996313486e-11
7.46275248286e-05
6.21805547418e-11
7.4627485689e-05
7.15821540489e-11
7.46274594587e-05
8.13819794794e-11
7.46274422845e-05
9.24991656535e-11
7.46274311694e-05
1.04831738646e-10
7.46274238756e-05
1.1831661321e-10
7.4627418851e-05
1.32968283814e-10
7.4627415013e-05
1.48679635524e-10
7.46274116001e-05
1.6518707025e-10
7.46274080655e-05
1.82062664387e-10
7.46274039824e-05
1.98674752493e-10
7.46273990019e-05
2.14157161031e-10
7.46273929489e-05
2.27376856012e-10
7.46273856348e-05
2.36635459124e-10
7.46273767122e-05
2.39647823575e-10
7.46273654309e-05
2.33408155853e-10
7.46273507339e-05
2.14437176398e-10
7.46273308308e-05
1.78727386069e-10
7.46273049779e-05
1.23241810686e-10
7.46272615769e-05
2.73011057447e-11
7.4627170202e-05
-1.63463577442e-10
7.46270327957e-05
-4.76588285086e-10
7.46268072274e-05
-9.01477423675e-10
7.46264328188e-05
-1.48869387218e-09
7.46258125477e-05
-2.29179104127e-09
7.46247887194e-05
-3.38312756029e-09
7.46231043126e-05
-4.85725098781e-09
7.46203393852e-05
-6.83129510734e-09
7.46158305022e-05
-9.48606642424e-09
7.46085097757e-05
-1.3034282644e-08
7.45966275289e-05
-1.76794497633e-08
7.45773719525e-05
-2.36927035745e-08
7.45463348091e-05
-3.15154793779e-08
7.44967209119e-05
-4.17885986532e-08
7.44177434627e-05
-5.46329252544e-08
7.42929244039e-05
-7.02067221766e-08
7.40977523332e-05
-8.82603397268e-08
7.37971982716e-05
-1.0763153622e-07
7.3344269138e-05
-1.25548659012e-07
7.26819897983e-05
-1.36828388203e-07
7.17516044092e-05
-1.3427172451e-07
-1.09349274237e-07
7.05106442678e-05
5.07871712867e-05
-7.87116943181e-07