/*--------------------------------*- C++ -*----------------------------------*\
| =========                 |                                                 |
| \\      /  F ield         | OpenFOAM: The Open Source CFD Toolbox           |
|  \\    /   O peration     | Version:  2106                                  |
|   \\  /    A nd           | Website:  www.openfoam.com                      |
|    \\/     M anipulation  |                                                 |
\*---------------------------------------------------------------------------*/
FoamFile
{
    version     2.0;
    format      ascii;
    arch        "LSB;label=32;scalar=64";
    class       volVectorField;
    location    "0.06";
    object      U;
}
// * * * * * * * * * * * * * * * * * * * * * * * * * * * * * * * * * * * * * //

dimensions      [0 1 -1 0 0 0 0];

internalField   nonuniform List<vector> 
800
(
(4.32235e-11 0 0)
(1.22532e-11 0 0)
(1.98555e-11 0 0)
(7.77738e-11 0 0)
(8.26335e-11 0 0)
(7.15756e-11 0 0)
(8.21927e-11 0 0)
(7.3693e-11 0 0)
(2.20303e-11 0 0)
(3.18602e-11 0 0)
(2.61885e-11 0 0)
(-5.93751e-11 0 0)
(-1.72132e-10 0 0)
(-1.41226e-10 0 0)
(-8.03311e-11 0 0)
(-1.12817e-11 0 0)
(1.61765e-11 0 0)
(6.18605e-11 0 0)
(5.07178e-11 0 0)
(-1.70322e-11 0 0)
(-8.39839e-11 0 0)
(-1.23275e-10 0 0)
(-1.4669e-10 0 0)
(-2.16333e-10 0 0)
(-2.18867e-10 0 0)
(-1.77646e-10 0 0)
(-1.08912e-10 0 0)
(1.18839e-11 0 0)
(-2.08411e-11 0 0)
(5.78364e-12 0 0)
(3.6783e-11 0 0)
(7.36129e-11 0 0)
(1.0959e-10 0 0)
(1.32578e-10 0 0)
(1.2648e-10 0 0)
(9.65452e-11 0 0)
(2.08619e-11 0 0)
(3.6925e-12 0 0)
(-3.58435e-11 0 0)
(-7.5811e-11 0 0)
(-9.82267e-11 0 0)
(-1.22976e-10 0 0)
(-1.16782e-10 0 0)
(-1.23283e-11 0 0)
(1.15395e-10 0 0)
(1.28553e-10 0 0)
(8.07248e-11 0 0)
(4.8353e-11 0 0)
(-2.78671e-11 0 0)
(-7.91451e-11 0 0)
(-1.20253e-10 0 0)
(-1.5125e-10 0 0)
(-1.37388e-10 0 0)
(-1.02616e-10 0 0)
(-9.35832e-11 0 0)
(-8.15006e-11 0 0)
(-6.03925e-11 0 0)
(-8.18506e-11 0 0)
(-8.07073e-11 0 0)
(-4.39845e-11 0 0)
(-2.34568e-11 0 0)
(-6.2723e-11 0 0)
(-1.21268e-10 0 0)
(-1.36162e-10 0 0)
(-1.0785e-10 0 0)
(-8.45376e-11 0 0)
(-2.82411e-11 0 0)
(4.46004e-11 0 0)
(1.02126e-10 0 0)
(1.16635e-10 0 0)
(5.0855e-11 0 0)
(-4.94584e-12 0 0)
(-1.1296e-10 0 0)
(-1.15234e-10 0 0)
(-9.17303e-11 0 0)
(-1.32311e-10 0 0)
(-1.11219e-10 0 0)
(-6.57107e-11 0 0)
(-4.98282e-11 0 0)
(-4.21392e-11 0 0)
(3.42577e-11 0 0)
(1.08187e-10 0 0)
(5.66269e-11 0 0)
(2.1392e-11 0 0)
(8.09402e-11 0 0)
(8.84489e-11 0 0)
(9.33376e-11 0 0)
(8.44131e-11 0 0)
(8.21066e-11 0 0)
(8.30705e-11 0 0)
(-1.70122e-11 0 0)
(-1.49462e-10 0 0)
(-1.23517e-10 0 0)
(-1.10955e-10 0 0)
(-7.02723e-11 0 0)
(4.7593e-12 0 0)
(8.20727e-11 0 0)
(1.26311e-10 0 0)
(1.24099e-10 0 0)
(7.00675e-11 0 0)
(6.46873e-12 0 0)
(-1.26094e-10 0 0)
(-1.57289e-10 0 0)
(-1.20295e-10 0 0)
(-1.11006e-10 0 0)
(-1.51099e-10 0 0)
(-1.74422e-10 0 0)
(-1.54518e-10 0 0)
(-8.38964e-11 0 0)
(-3.55263e-11 0 0)
(1.05761e-11 0 0)
(4.22433e-11 0 0)
(3.35661e-11 0 0)
(9.78309e-12 0 0)
(1.5391e-11 0 0)
(5.20078e-11 0 0)
(4.0222e-11 0 0)
(3.79133e-12 0 0)
(-3.7974e-11 0 0)
(-7.14722e-11 0 0)
(-7.19149e-11 0 0)
(-7.10982e-11 0 0)
(-8.07709e-11 0 0)
(-6.00868e-11 0 0)
(2.44046e-11 0 0)
(6.27891e-11 0 0)
(9.39192e-11 0 0)
(1.01233e-10 0 0)
(9.10062e-12 0 0)
(1.64505e-11 0 0)
(1.49342e-11 0 0)
(5.18413e-12 0 0)
(5.13082e-12 0 0)
(-1.4147e-11 0 0)
(-8.50783e-11 0 0)
(-1.84126e-10 0 0)
(-2.13937e-10 0 0)
(-1.82728e-10 0 0)
(-1.7196e-10 0 0)
(-1.11977e-10 0 0)
(-2.77162e-11 0 0)
(2.62589e-11 0 0)
(3.27352e-11 0 0)
(-5.02105e-11 0 0)
(-3.09911e-11 0 0)
(-2.26261e-11 0 0)
(-1.01917e-10 0 0)
(-9.06142e-11 0 0)
(2.8526e-12 0 0)
(8.49621e-11 0 0)
(1.21274e-10 0 0)
(1.57288e-10 0 0)
(1.54088e-10 0 0)
(9.61392e-11 0 0)
(8.26301e-11 0 0)
(3.03868e-11 0 0)
(-6.68312e-12 0 0)
(-1.10368e-12 0 0)
(-1.19907e-11 0 0)
(-1.86233e-11 0 0)
(-2.77335e-12 0 0)
(9.35738e-11 0 0)
(1.373e-10 0 0)
(6.73515e-11 0 0)
(2.59841e-11 0 0)
(2.12573e-11 0 0)
(-4.07174e-11 0 0)
(-6.61191e-11 0 0)
(-9.5118e-11 0 0)
(-1.15055e-10 0 0)
(-8.59754e-11 0 0)
(-1.55693e-10 0 0)
(-2.1821e-10 0 0)
(-1.76773e-10 0 0)
(-1.45822e-10 0 0)
(-1.04732e-10 0 0)
(-7.39531e-12 0 0)
(3.20182e-11 0 0)
(3.38257e-11 0 0)
(1.18371e-12 0 0)
(-9.21833e-12 0 0)
(2.40289e-11 0 0)
(1.90868e-11 0 0)
(-3.09694e-12 0 0)
(1.19198e-12 0 0)
(7.01375e-11 0 0)
(1.02768e-10 0 0)
(4.51319e-11 0 0)
(9.45663e-12 0 0)
(-2.43727e-11 0 0)
(-9.47936e-11 0 0)
(-1.91253e-10 0 0)
(-1.89132e-10 0 0)
(-1.21862e-10 0 0)
(-2.979e-11 0 0)
(9.94661e-15 0 0)
(-7.50495e-12 0 0)
(2.39251e-11 0 0)
(7.47532e-11 0 0)
(5.56657e-11 0 0)
(1.39032e-11 0 0)
(-5.33275e-11 0 0)
(-1.85505e-10 0 0)
(-2.2455e-10 0 0)
(-1.23492e-10 0 0)
(7.37139e-13 0 0)
(-3.09074e-11 0 0)
(1.77027e-11 0 0)
(5.12797e-11 0 0)
(1.04463e-11 0 0)
(-3.07839e-11 0 0)
(-1.03623e-10 0 0)
(-7.33818e-11 0 0)
(1.75552e-11 0 0)
(8.27287e-11 0 0)
(1.30558e-10 0 0)
(1.44785e-10 0 0)
(2.13673e-10 0 0)
(2.92542e-10 0 0)
(3.27004e-10 0 0)
(2.87845e-10 0 0)
(2.30674e-10 0 0)
(1.48507e-10 0 0)
(8.09746e-11 0 0)
(6.80677e-11 0 0)
(7.3002e-11 0 0)
(1.05972e-10 0 0)
(1.19829e-10 0 0)
(1.78742e-10 0 0)
(2.01371e-10 0 0)
(2.01622e-10 0 0)
(2.15008e-10 0 0)
(2.35491e-10 0 0)
(2.1457e-10 0 0)
(2.39907e-10 0 0)
(2.56571e-10 0 0)
(2.22275e-10 0 0)
(2.18394e-10 0 0)
(2.32716e-10 0 0)
(2.42491e-10 0 0)
(2.0253e-10 0 0)
(1.42517e-10 0 0)
(8.43582e-11 0 0)
(9.55283e-11 0 0)
(1.79276e-10 0 0)
(7.6464e-11 0 0)
(2.46876e-11 0 0)
(-2.74739e-11 0 0)
(-2.84316e-11 0 0)
(-2.95209e-11 0 0)
(-3.95184e-11 0 0)
(-2.44973e-11 0 0)
(9.28226e-12 0 0)
(3.94174e-11 0 0)
(5.61112e-11 0 0)
(7.06349e-11 0 0)
(4.60779e-11 0 0)
(5.82574e-11 0 0)
(3.54668e-11 0 0)
(2.36841e-11 0 0)
(-1.23866e-11 0 0)
(-2.05179e-11 0 0)
(2.04909e-11 0 0)
(3.59654e-11 0 0)
(2.3935e-11 0 0)
(3.74109e-11 0 0)
(1.17955e-10 0 0)
(1.04722e-10 0 0)
(6.2161e-11 0 0)
(5.70439e-11 0 0)
(3.13134e-11 0 0)
(-2.83114e-11 0 0)
(-2.84089e-11 0 0)
(1.28293e-11 0 0)
(6.83242e-11 0 0)
(-1.13428e-11 0 0)
(-1.10836e-10 0 0)
(-1.73602e-10 0 0)
(-1.711e-10 0 0)
(-1.14144e-10 0 0)
(-7.46767e-11 0 0)
(-8.98404e-11 0 0)
(-5.33713e-11 0 0)
(-8.23075e-11 0 0)
(-1.5387e-10 0 0)
(-5.53825e-11 0 0)
(3.91062e-11 0 0)
(7.67252e-11 0 0)
(5.23568e-11 0 0)
(2.39033e-11 0 0)
(1.61639e-11 0 0)
(4.13611e-11 0 0)
(7.69431e-11 0 0)
(3.26231e-11 0 0)
(-2.22345e-11 0 0)
(-4.61614e-11 0 0)
(-8.19437e-11 0 0)
(-4.40831e-11 0 0)
(4.72357e-12 0 0)
(9.53918e-12 0 0)
(-6.58449e-12 0 0)
(-3.39093e-11 0 0)
(-5.21084e-11 0 0)
(-5.043e-11 0 0)
(-4.14992e-11 0 0)
(-4.93416e-11 0 0)
(3.3038e-11 0 0)
(1.01406e-10 0 0)
(1.2291e-10 0 0)
(1.35213e-10 0 0)
(1.36973e-10 0 0)
(1.19411e-10 0 0)
(1.1912e-10 0 0)
(9.67801e-11 0 0)
(8.03649e-11 0 0)
(4.6657e-11 0 0)
(5.5344e-11 0 0)
(4.55461e-11 0 0)
(-5.39886e-11 0 0)
(-1.28536e-10 0 0)
(-1.86612e-10 0 0)
(-2.25553e-10 0 0)
(-2.81724e-10 0 0)
(-3.83669e-10 0 0)
(-4.66466e-10 0 0)
(-5.32985e-10 0 0)
(-3.88724e-10 0 0)
(3.27109e-07 0 0)
(6.92826e-05 0 0)
(0.00182821 0 0)
(0.0112476 0 0)
(0.0289985 0 0)
(0.0482523 0 0)
(0.0656732 0 0)
(0.0813355 0 0)
(0.0959464 0 0)
(0.110015 0 0)
(0.123816 0 0)
(0.137485 0 0)
(0.151084 0 0)
(0.164641 0 0)
(0.178174 0 0)
(0.191689 0 0)
(0.205193 0 0)
(0.218687 0 0)
(0.232176 0 0)
(0.24566 0 0)
(0.259142 0 0)
(0.272621 0 0)
(0.286099 0 0)
(0.299576 0 0)
(0.313054 0 0)
(0.326533 0 0)
(0.340013 0 0)
(0.353494 0 0)
(0.366977 0 0)
(0.380463 0 0)
(0.393952 0 0)
(0.407444 0 0)
(0.420939 0 0)
(0.434439 0 0)
(0.447943 0 0)
(0.461452 0 0)
(0.474966 0 0)
(0.488485 0 0)
(0.50201 0 0)
(0.515542 0 0)
(0.529079 0 0)
(0.542624 0 0)
(0.556176 0 0)
(0.569735 0 0)
(0.583301 0 0)
(0.596875 0 0)
(0.610457 0 0)
(0.624046 0 0)
(0.637642 0 0)
(0.651246 0 0)
(0.664857 0 0)
(0.678475 0 0)
(0.692099 0 0)
(0.705729 0 0)
(0.719363 0 0)
(0.733001 0 0)
(0.746642 0 0)
(0.760285 0 0)
(0.773928 0 0)
(0.78757 0 0)
(0.80121 0 0)
(0.814846 0 0)
(0.828478 0 0)
(0.842103 0 0)
(0.855718 0 0)
(0.86931 0 0)
(0.882841 0 0)
(0.896184 0 0)
(0.908958 0 0)
(0.920201 0 0)
(0.928166 0 0)
(0.931499 0 0)
(0.931633 0 0)
(0.929255 0 0)
(0.92844 0 0)
(0.929055 0 0)
(0.929909 0 0)
(0.93013 0 0)
(0.930165 0 0)
(0.930044 0 0)
(0.929928 0 0)
(0.9299 0 0)
(0.92986 0 0)
(0.929711 0 0)
(0.929579 0 0)
(0.929522 0 0)
(0.929491 0 0)
(0.929414 0 0)
(0.929235 0 0)
(0.929091 0 0)
(0.929022 0 0)
(0.928966 0 0)
(0.928916 0 0)
(0.9289 0 0)
(0.928914 0 0)
(0.92892 0 0)
(0.928818 0 0)
(0.928694 0 0)
(0.928636 0 0)
(0.928597 0 0)
(0.928539 0 0)
(0.928496 0 0)
(0.928492 0 0)
(0.928497 0 0)
(0.928458 0 0)
(0.92837 0 0)
(0.92835 0 0)
(0.92838 0 0)
(0.928404 0 0)
(0.928429 0 0)
(0.92851 0 0)
(0.928628 0 0)
(0.928721 0 0)
(0.928717 0 0)
(0.928702 0 0)
(0.928761 0 0)
(0.928793 0 0)
(0.928782 0 0)
(0.928767 0 0)
(0.92881 0 0)
(0.928893 0 0)
(0.928887 0 0)
(0.928813 0 0)
(0.928821 0 0)
(0.928854 0 0)
(0.928871 0 0)
(0.928956 0 0)
(0.929273 0 0)
(0.92961 0 0)
(0.93057 0 0)
(0.932729 0 0)
(0.926347 0 0)
(0.924954 0 0)
(0.927247 0 0)
(0.928758 0 0)
(0.930635 0 0)
(0.931843 0 0)
(0.931399 0 0)
(0.930147 0 0)
(0.928504 0 0)
(0.927081 0 0)
(0.92622 0 0)
(0.925844 0 0)
(0.925981 0 0)
(0.92732 0 0)
(0.929852 0 0)
(0.931232 0 0)
(0.931282 0 0)
(0.931076 0 0)
(0.930148 0 0)
(0.928197 0 0)
(0.926335 0 0)
(0.92584 0 0)
(0.926135 0 0)
(0.92669 0 0)
(0.928028 0 0)
(0.93021 0 0)
(0.931277 0 0)
(0.931361 0 0)
(0.931115 0 0)
(0.93014 0 0)
(0.927961 0 0)
(0.926391 0 0)
(0.926114 0 0)
(0.926179 0 0)
(0.926859 0 0)
(0.928782 0 0)
(0.930796 0 0)
(0.931292 0 0)
(0.931368 0 0)
(0.930918 0 0)
(0.92927 0 0)
(0.926976 0 0)
(0.92646 0 0)
(0.926565 0 0)
(0.926549 0 0)
(0.924729 0 0)
(0.897283 0 0)
(0.670699 0 0)
(0.140819 0 0)
(0.0015809 0 0)
(4.14788e-07 0 0)
(2.0007e-11 0 0)
(-1.60817e-12 0 0)
(2.26252e-11 0 0)
(8.85377e-12 0 0)
(-9.88948e-12 0 0)
(-5.8282e-11 0 0)
(-1.62579e-10 0 0)
(-2.41867e-10 0 0)
(-2.04943e-10 0 0)
(-7.80295e-11 0 0)
(-2.02288e-12 0 0)
(4.78936e-12 0 0)
(-4.70242e-11 0 0)
(-9.07084e-11 0 0)
(-1.05795e-10 0 0)
(-9.03689e-11 0 0)
(-1.67174e-11 0 0)
(-3.21567e-11 0 0)
(-1.21652e-10 0 0)
(-1.58668e-10 0 0)
(-2.02731e-10 0 0)
(-2.50829e-10 0 0)
(-2.00833e-10 0 0)
(-1.18251e-10 0 0)
(-1.47363e-10 0 0)
(-1.72483e-10 0 0)
(-1.84816e-10 0 0)
(-1.48192e-10 0 0)
(-1.22059e-10 0 0)
(-1.48841e-10 0 0)
(-1.81724e-10 0 0)
(-1.3421e-10 0 0)
(-4.05932e-11 0 0)
(5.39274e-11 0 0)
(6.73637e-11 0 0)
(1.46927e-11 0 0)
(-6.65406e-11 0 0)
(-7.45429e-11 0 0)
(-4.37332e-11 0 0)
(1.00261e-10 0 0)
(1.45096e-10 0 0)
(1.59748e-10 0 0)
(1.10272e-10 0 0)
(1.04634e-10 0 0)
(6.99307e-11 0 0)
(5.22324e-11 0 0)
(9.51426e-11 0 0)
(1.80453e-11 0 0)
(-1.11731e-10 0 0)
(-1.48711e-10 0 0)
(-1.39579e-10 0 0)
(-1.60617e-10 0 0)
(-1.16279e-10 0 0)
(-6.51638e-11 0 0)
(-1.21696e-10 0 0)
(-1.16306e-10 0 0)
(-1.17447e-10 0 0)
(-1.25645e-10 0 0)
(-1.17424e-10 0 0)
(-1.07363e-10 0 0)
(-5.50278e-11 0 0)
(-1.33057e-11 0 0)
(5.14649e-12 0 0)
(2.57528e-11 0 0)
(-2.07833e-11 0 0)
(-3.27362e-11 0 0)
(-4.11881e-12 0 0)
(-3.60667e-11 0 0)
(-8.04783e-11 0 0)
(-7.3776e-11 0 0)
(-2.32964e-13 0 0)
(7.59023e-11 0 0)
(1.33826e-10 0 0)
(1.26076e-10 0 0)
(6.80238e-11 0 0)
(3.123e-11 0 0)
(-5.50179e-11 0 0)
(-1.44468e-10 0 0)
(-1.5994e-10 0 0)
(-2.3006e-10 0 0)
(-2.2136e-10 0 0)
(-1.51546e-10 0 0)
(-8.73872e-11 0 0)
(-7.38853e-11 0 0)
(-8.92969e-11 0 0)
(-6.54611e-11 0 0)
(-3.01955e-12 0 0)
(4.30417e-11 0 0)
(1.24092e-10 0 0)
(1.92948e-10 0 0)
(2.28028e-10 0 0)
(2.34692e-10 0 0)
(2.26634e-10 0 0)
(1.69563e-10 0 0)
(8.69024e-11 0 0)
(8.19566e-11 0 0)
(6.4858e-11 0 0)
(3.71927e-11 0 0)
(-2.31699e-11 0 0)
(-6.16283e-11 0 0)
(-7.76779e-11 0 0)
(-8.62154e-11 0 0)
(-5.17453e-11 0 0)
(3.80485e-12 0 0)
(-2.2815e-12 0 0)
(2.08802e-11 0 0)
(2.11703e-11 0 0)
(-3.86913e-12 0 0)
(-7.90517e-11 0 0)
(-1.23797e-10 0 0)
(-1.61945e-10 0 0)
(-2.50004e-10 0 0)
(-2.76798e-10 0 0)
(-1.96931e-10 0 0)
(-1.2284e-10 0 0)
(-1.05522e-10 0 0)
(-1.01231e-10 0 0)
(-7.16294e-11 0 0)
(-4.21825e-11 0 0)
(-3.1383e-11 0 0)
(-5.48109e-11 0 0)
(-1.17746e-11 0 0)
(5.99963e-11 0 0)
(6.60587e-11 0 0)
(5.66323e-11 0 0)
(8.70819e-11 0 0)
(1.55172e-10 0 0)
(1.31679e-10 0 0)
(1.053e-10 0 0)
(6.92097e-11 0 0)
(9.61174e-12 0 0)
(4.12776e-11 0 0)
(1.01516e-10 0 0)
(1.85542e-10 0 0)
(2.3355e-10 0 0)
(2.01128e-10 0 0)
(1.04282e-10 0 0)
(3.88351e-11 0 0)
(3.28702e-11 0 0)
(4.73049e-11 0 0)
(2.17619e-11 0 0)
(5.15168e-11 0 0)
(2.86194e-11 0 0)
(-1.56429e-12 0 0)
(5.9498e-13 0 0)
(-3.475e-11 0 0)
(-6.91097e-11 0 0)
(-5.96496e-11 0 0)
(-5.05706e-11 0 0)
(-2.24471e-11 0 0)
(-3.57463e-11 0 0)
(-7.65207e-11 0 0)
(-6.79793e-11 0 0)
(-5.13478e-11 0 0)
(-8.89311e-11 0 0)
(-1.18735e-10 0 0)
(-1.21866e-10 0 0)
(-1.03294e-10 0 0)
(-3.92014e-11 0 0)
(-2.63804e-11 0 0)
(-4.17188e-11 0 0)
(2.33099e-11 0 0)
(1.57954e-10 0 0)
(2.17051e-10 0 0)
(1.80815e-10 0 0)
(1.36865e-10 0 0)
(7.57154e-11 0 0)
(2.7384e-11 0 0)
(-1.79565e-11 0 0)
(-9.9736e-11 0 0)
(-1.61248e-10 0 0)
(-1.38265e-10 0 0)
(-1.21806e-10 0 0)
(-1.00239e-10 0 0)
(1.73024e-11 0 0)
(4.88258e-11 0 0)
(7.54153e-11 0 0)
(9.62333e-11 0 0)
(5.39942e-11 0 0)
(5.06134e-11 0 0)
(4.09514e-11 0 0)
(8.00171e-12 0 0)
(-5.42565e-11 0 0)
(-1.20468e-10 0 0)
(-1.33574e-10 0 0)
(-1.40154e-10 0 0)
(-1.28504e-10 0 0)
(-9.76661e-11 0 0)
(-6.03721e-11 0 0)
(-2.21247e-11 0 0)
(3.8918e-11 0 0)
(6.91866e-11 0 0)
(3.1979e-11 0 0)
(-1.85745e-11 0 0)
(-8.73048e-11 0 0)
(-9.32866e-11 0 0)
(-3.46971e-11 0 0)
(9.44569e-12 0 0)
(5.29997e-11 0 0)
(8.35352e-12 0 0)
(-6.63642e-11 0 0)
(-8.96749e-11 0 0)
(-6.05052e-11 0 0)
(-3.28337e-12 0 0)
(2.59926e-11 0 0)
(5.57138e-11 0 0)
(1.30618e-10 0 0)
(1.59499e-10 0 0)
(1.15015e-10 0 0)
(1.48391e-10 0 0)
(1.94222e-10 0 0)
(1.52114e-10 0 0)
(6.66328e-11 0 0)
(5.09056e-11 0 0)
(4.96953e-11 0 0)
(3.15255e-11 0 0)
(4.30154e-11 0 0)
(1.09525e-10 0 0)
(1.32858e-10 0 0)
(1.73905e-10 0 0)
(1.89165e-10 0 0)
(1.20672e-10 0 0)
(1.09175e-10 0 0)
(8.01146e-11 0 0)
(4.61217e-11 0 0)
(5.62321e-11 0 0)
(6.28754e-11 0 0)
(4.80845e-11 0 0)
(4.00835e-11 0 0)
(-5.83882e-12 0 0)
(1.22571e-11 0 0)
(8.81986e-11 0 0)
(1.35409e-10 0 0)
(1.34007e-10 0 0)
(1.13847e-10 0 0)
(5.64631e-11 0 0)
(-1.75093e-11 0 0)
(-1.39171e-10 0 0)
(-1.76774e-10 0 0)
(-1.95473e-10 0 0)
(-1.62991e-10 0 0)
(-1.05809e-10 0 0)
(-7.92363e-11 0 0)
(-6.8302e-11 0 0)
(-1.40224e-10 0 0)
(-1.62468e-10 0 0)
(-1.34075e-10 0 0)
(-1.25465e-10 0 0)
(-5.2746e-11 0 0)
(6.81484e-11 0 0)
(1.22867e-10 0 0)
(1.59478e-10 0 0)
(2.24164e-10 0 0)
(1.95994e-10 0 0)
(1.5189e-10 0 0)
(1.39865e-10 0 0)
(1.45688e-10 0 0)
(1.56139e-10 0 0)
(5.8243e-11 0 0)
(-1.26385e-11 0 0)
(2.42616e-11 0 0)
(6.82988e-11 0 0)
(4.59426e-11 0 0)
(3.99671e-11 0 0)
(2.0964e-11 0 0)
(-4.1464e-11 0 0)
(-5.49381e-11 0 0)
(-4.00852e-11 0 0)
(-3.72807e-11 0 0)
(-2.45831e-11 0 0)
(4.39973e-11 0 0)
(1.06511e-10 0 0)
(6.5776e-11 0 0)
(-3.10565e-11 0 0)
(-4.75043e-11 0 0)
(4.64076e-11 0 0)
(1.38688e-10 0 0)
(2.07344e-10 0 0)
(2.19866e-10 0 0)
(1.15715e-10 0 0)
(4.27277e-11 0 0)
(-1.72283e-11 0 0)
(-5.61555e-11 0 0)
(-1.58102e-11 0 0)
(-6.38577e-12 0 0)
(-3.29606e-11 0 0)
(-2.49228e-11 0 0)
(-3.651e-11 0 0)
(-5.35079e-11 0 0)
(-6.61376e-11 0 0)
(-4.37758e-11 0 0)
)
;

boundaryField
{
    left
    {
        type            noSlip;
    }
    right
    {
        type            noSlip;
    }
    empty
    {
        type            empty;
    }
}


// ************************************************************************* //
