/*--------------------------------*- C++ -*----------------------------------*\
| =========                 |                                                 |
| \\      /  F ield         | OpenFOAM: The Open Source CFD Toolbox           |
|  \\    /   O peration     | Version:  2106                                  |
|   \\  /    A nd           | Website:  www.openfoam.com                      |
|    \\/     M anipulation  |                                                 |
\*---------------------------------------------------------------------------*/
FoamFile
{
    version     2.0;
    format      ascii;
    arch        "LSB;label=32;scalar=64";
    class       surfaceScalarField;
    location    "0.015";
    object      phi;
}
// * * * * * * * * * * * * * * * * * * * * * * * * * * * * * * * * * * * * * //

dimensions      [0 3 -1 0 0 0 0];

oriented        oriented;

internalField   nonuniform List<scalar> 
22100
(
3.38393274364e-05
1.61606725534e-05
2.24832338557e-05
1.13560927572e-05
1.6375853602e-05
6.10737976116e-06
1.30648938852e-05
3.31095915466e-06
1.12670457114e-05
1.79784776926e-06
1.02856668569e-05
9.81378553608e-07
9.75046732306e-06
5.35199518613e-07
9.46179893415e-06
2.88668358125e-07
9.30919317972e-06
1.52605984891e-07
9.23077721793e-06
7.84163067502e-08
9.19203296053e-06
3.87446695028e-08
9.17398703847e-06
1.80464141188e-08
9.16640625028e-06
7.58126199541e-09
9.16383920444e-06
2.56747908195e-09
9.16350107921e-06
3.38430351302e-10
9.16421892679e-06
-7.17645483729e-10
9.16521101408e-06
-9.92014985228e-10
9.16617824339e-06
-9.67267027361e-10
9.16697829654e-06
-8.00243972279e-10
9.16760154636e-06
-6.23478766962e-10
9.16806946212e-06
-4.68073642828e-10
9.1684109374e-06
-3.41564208438e-10
9.16865457111e-06
-2.43645913917e-10
9.16882534562e-06
-1.70772733206e-10
9.16894351215e-06
-1.18240640112e-10
9.1690246372e-06
-8.12220176297e-11
9.16907840462e-06
-5.38976919368e-11
9.16911117577e-06
-3.29774944259e-11
9.16912948021e-06
-1.85063239987e-11
9.16913839999e-06
-9.08278545626e-12
9.16914107767e-06
-2.83270570334e-12
9.16913953866e-06
1.4468698779e-12
9.16913526091e-06
4.30894834148e-12
9.16912928866e-06
6.10906866827e-12
9.16912238123e-06
7.14197694639e-12
9.16911503461e-06
7.68419203088e-12
9.16910747023e-06
7.93312018358e-12
9.16909972411e-06
8.06369793066e-12
9.16909172451e-06
8.28063472837e-12
9.16908325505e-06
8.73707795367e-12
9.1690739669e-06
9.46262117187e-12
9.16906353765e-06
1.04219149564e-11
9.16905182721e-06
1.15511361439e-11
9.16903885014e-06
1.27703671657e-11
9.16902460415e-06
1.40711070626e-11
9.16900893073e-06
1.5575562348e-11
9.16899147771e-06
1.7464939075e-11
9.16897181754e-06
1.9758846548e-11
9.16894936998e-06
2.25386236533e-11
9.1689233619e-06
2.59945164169e-11
9.16889288108e-06
3.03365004908e-11
9.16885694073e-06
3.5715257121e-11
9.16881453485e-06
4.21689356133e-11
9.16876472393e-06
4.96080567012e-11
9.1687066948e-06
5.78961609427e-11
9.16863978541e-06
6.68651671664e-11
9.1685637374e-06
7.60482283611e-11
9.16847941131e-06
8.42910730938e-11
9.16838979934e-06
8.95006005214e-11
9.16830152052e-06
8.80635272861e-11
9.16822968662e-06
7.14856404202e-11
9.16819747168e-06
3.17925182408e-11
9.16823083964e-06
-3.37538724961e-11
9.16838493867e-06
-1.54381574229e-10
9.16875155705e-06
-3.66726669543e-10
9.16947887255e-06
-7.27259620298e-10
9.1707999304e-06
-1.32099193132e-09
9.17306256536e-06
-2.26262420728e-09
9.17670252563e-06
-3.63997513716e-09
9.18290535903e-06
-6.20285679526e-09
9.19331396389e-06
-1.04085218051e-08
9.21022111372e-06
-1.69069019594e-08
9.23753029496e-06
-2.73088660803e-08
9.28208609333e-06
-4.45554216104e-08
9.35763663568e-06
-7.55501686103e-08
9.49497797167e-06
-1.37341090065e-07
9.78555699443e-06
-2.90578959572e-07
1.05176421689e-05
-7.32085396621e-07
1.27651437755e-05
-2.24750194917e-06
-8.38978843631e-06
2.11549319193e-05
5.02427459387e-05
1.59179260016e-05
4.43920670608e-05
1.72067705033e-05
3.81779314356e-05
1.23215145873e-05
3.34233724346e-05
8.06551758822e-06
3.01931918545e-05
5.02802809636e-06
2.81429185293e-05
3.0316519116e-06
2.68970269102e-05
1.78109142443e-06
2.61649291407e-05
1.02076667413e-06
2.5747036961e-05
5.70498862674e-07
2.55146646602e-05
3.10789331715e-07
2.53886561699e-05
1.64753865115e-07
2.53221241712e-05
8.45789707749e-08
2.52881203108e-05
4.15854632778e-08
2.52715696764e-05
1.91183031137e-08
2.52642068964e-05
7.70125956731e-09
2.52614089189e-05
2.08021790395e-09
2.52609456154e-05
-5.28825421398e-10
2.52612993023e-05
-1.32112439025e-09
2.52619538301e-05
-1.45493843747e-09
2.52626502752e-05
-1.32003650886e-09
2.52632725239e-05
-1.09049276839e-09
2.52637821113e-05
-8.51294067384e-10
2.52641794671e-05
-6.41085406726e-10
2.52644816985e-05
-4.73116541013e-10
2.52647123073e-05
-3.48945494183e-10
2.52648762841e-05
-2.45341119515e-10
2.52649855393e-05
-1.63433477059e-10
2.52650571957e-05
-1.04941981116e-10
2.52651028583e-05
-6.44312433998e-11
2.52651316528e-05
-3.81139358633e-11
2.52651489208e-05
-2.0235564872e-11
2.52651579623e-05
-7.53708195297e-12
2.5265161251e-05
1.26423409379e-12
2.52651605775e-05
7.21633915199e-12
2.52651572086e-05
1.11434172474e-11
2.5265151914e-05
1.36909756019e-11
2.52651451109e-05
1.53568664744e-11
2.52651370829e-05
1.65720971951e-11
2.52651279885e-05
1.77312680214e-11
2.52651177316e-05
1.91778785842e-11
2.52651060154e-05
2.11460818678e-11
2.52650925132e-05
2.37362499825e-11
2.52650769463e-05
2.68836294863e-11
2.52650590487e-05
3.04660484935e-11
2.52650385077e-05
3.45127530901e-11
2.5265014891e-05
3.92466356541e-11
2.52649875163e-05
4.49817382768e-11
2.5264955684e-05
5.16538457356e-11
2.52649187343e-05
5.93637369118e-11
2.52648760878e-05
6.83675932819e-11
2.52648271966e-05
7.89038344457e-11
2.52647715316e-05
9.10466659919e-11
2.52647087684e-05
1.04593795032e-10
2.52646390784e-05
1.1902190002e-10
2.52645633856e-05
1.33456770614e-10
2.52644837956e-05
1.46422369325e-10
2.52644046275e-05
1.55162476844e-10
2.52643343404e-05
1.54450042436e-10
2.52642885121e-05
1.35063745999e-10
2.52642944079e-05
8.16359846595e-11
2.52644058547e-05
-4.07305849554e-11
2.52647238242e-05
-2.86953980748e-10
2.52654056549e-05
-7.16175246024e-10
2.5266560811e-05
-1.30985389805e-09
2.5268462706e-05
-2.26872073725e-09
2.52715889582e-05
-3.85354320507e-09
2.52766800511e-05
-6.41206243643e-09
2.52849147712e-05
-1.04972941769e-08
2.52982574019e-05
-1.69825877098e-08
2.53194152336e-05
-2.7360493927e-08
2.53533268955e-05
-4.43196997392e-08
2.54080156375e-05
-7.15950680054e-08
2.54964350647e-05
-1.15727650417e-07
2.56416389525e-05
-1.89758613396e-07
2.58862876256e-05
-3.20198359976e-07
2.63164283558e-05
-5.67481782532e-07
2.7103399902e-05
-1.07755066233e-06
2.85900736835e-05
-2.21875914089e-06
3.13582109873e-05
-5.01563911959e-06
-1.15419106069e-05
3.45103316018e-05
5.35625648721e-05
1.2355360404e-05
5.31471332485e-05
1.76222011045e-05
5.01855911171e-05
1.52830558689e-05
4.68469507767e-05
1.14041573711e-05
4.40437279977e-05
7.83125040304e-06
4.19944480515e-05
5.08093180685e-06
4.06167425992e-05
3.1587970099e-06
3.97420497842e-05
1.8954598801e-06
3.92097306952e-05
1.10281854039e-06
3.88962391675e-05
6.24281520741e-07
3.87164754586e-05
3.44518311754e-07
3.8615764049e-05
1.8529104242e-07
3.85606183174e-05
9.67317583223e-08
3.85312161956e-05
4.85207750891e-08
3.85160629025e-05
2.28547603759e-08
3.85085773125e-05
9.56591697716e-09
3.8505048716e-05
2.9996735382e-09
3.85039472523e-05
-2.198581898e-10
3.85036896895e-05
-1.19751854626e-09
3.85038665271e-05
-1.49705168612e-09
3.8504192874e-05
-1.41696624326e-09
3.85045340097e-05
-1.19249210379e-09
3.85048332247e-05
-9.40407269396e-10
3.85050721571e-05
-7.12152306003e-10
3.85052491266e-05
-5.25992795038e-10
3.85053893016e-05
-3.85673239987e-10
3.85055044346e-05
-2.78787665521e-10
3.85055804439e-05
-1.81158411797e-10
3.85056310255e-05
-1.15219414683e-10
3.8505664345e-05
-7.16155093464e-11
3.85056858166e-05
-4.17689419091e-11
3.85056983291e-05
-1.9964881616e-11
3.85057044698e-05
-4.65506766109e-12
3.85057061403e-05
5.9246920885e-12
3.85057046166e-05
1.31745646667e-11
3.85057006885e-05
1.8154462305e-11
3.85056948632e-05
2.16909216464e-11
3.85056874799e-05
2.44322787227e-11
3.85056786953e-05
2.68889137614e-11
3.85056684339e-05
2.95937790995e-11
3.85056564792e-05
3.30297828692e-11
3.85056425595e-05
3.74738002543e-11
3.85056263745e-05
4.28832800443e-11
3.85056076116e-05
4.90941666199e-11
3.85055859428e-05
5.6142789489e-11
3.8505560875e-05
6.43950049973e-11
3.85055314402e-05
7.45571326107e-11
3.85054969273e-05
8.62402508192e-11
3.8505456815e-05
9.93870609799e-11
3.85054107546e-05
1.14187594277e-10
3.85053585684e-05
1.3077499946e-10
3.85053003019e-05
1.48980822603e-10
3.85052364635e-05
1.68125947524e-10
3.85051683769e-05
1.86889819422e-10
3.8505098664e-05
2.03056986616e-10
3.8505032209e-05
2.12810063658e-10
3.85049780265e-05
2.09257271908e-10
3.8504952293e-05
1.80012961223e-10
3.85049823047e-05
1.04709093232e-10
3.8505112567e-05
-4.91427967577e-11
3.85054351951e-05
-3.63933066366e-10
3.8506038217e-05
-8.90494459678e-10
3.85069618375e-05
-1.64013212741e-09
3.85085696136e-05
-2.91773448254e-09
3.85112998197e-05
-4.99893768446e-09
3.85157881002e-05
-8.34181912199e-09
3.85230494987e-05
-1.36734443351e-08
3.85346961957e-05
-2.21440419687e-08
3.85533044731e-05
-3.55909066096e-08
3.85829604748e-05
-5.70163490961e-08
3.86300463598e-05
-9.14052440173e-08
3.87049164088e-05
-1.46464651553e-07
3.88249443666e-05
-2.35755194542e-07
3.9018837286e-05
-3.83651258394e-07
3.93347967838e-05
-6.36157715574e-07
3.98525436854e-05
-1.08522864822e-06
4.06928796486e-05
-1.91788666143e-06
4.19862190717e-05
-3.51209887716e-06
4.36002676796e-05
-6.62968703058e-06
-1.21767331198e-05
4.42350933516e-05
5.35527109547e-05
8.80264894083e-06
5.57648545523e-05
1.5410056581e-05
5.57163982463e-05
1.53315117131e-05
5.44952801208e-05
1.26252749321e-05
5.29775260762e-05
9.34900422715e-06
5.16208089634e-05
6.43764890269e-06
5.05815937957e-05
4.19801235444e-06
4.98561190169e-05
2.62093499764e-06
4.93804317082e-05
1.57850630633e-06
4.90823078178e-05
9.22405973303e-07
4.89016976154e-05
5.25129013841e-07
4.87951432714e-05
2.91845931389e-07
4.87336560119e-05
1.58219411946e-07
4.86988931986e-05
8.32839395967e-08
4.86796482552e-05
4.20999613353e-08
4.866925158e-05
1.99626726367e-08
4.86638538187e-05
8.39744452683e-09
4.86610378679e-05
2.59603840393e-09
4.86597418019e-05
9.83920559989e-11
4.8659272938e-05
-1.02831129011e-09
4.86591800275e-05
-1.32410660214e-09
4.86592477805e-05
-1.26030759772e-09
4.8659371708e-05
-1.06442112072e-09
4.8659501895e-05
-8.42412317817e-10
4.86596156044e-05
-6.3983262549e-10
4.86596996504e-05
-4.69954010099e-10
4.86597538925e-05
-3.33294356116e-10
4.865979364e-05
-2.21175542493e-10
4.86598168651e-05
-1.38729745517e-10
4.86598379545e-05
-9.29260764969e-11
4.86598533003e-05
-5.71992966693e-11
4.86598631228e-05
-2.97324915762e-11
4.86598688599e-05
-1.01800084342e-11
4.86598714346e-05
3.72330867321e-12
4.86598714328e-05
1.36286435067e-11
4.86598692299e-05
2.07963476067e-11
4.86598650922e-05
2.62397466883e-11
4.86598591937e-05
3.0711044527e-11
4.86598516138e-05
3.47345492215e-11
4.86598422352e-05
3.90420362713e-11
4.86598308577e-05
4.43172202701e-11
4.865981722e-05
5.09650623047e-11
4.86598009833e-05
5.89913110288e-11
4.86597817422e-05
6.82569520942e-11
4.86597590169e-05
7.88640046604e-11
4.86597322322e-05
9.12541030951e-11
4.86597009531e-05
1.05942235065e-10
4.86596645693e-05
1.22672783855e-10
4.86596224847e-05
1.4139236632e-10
4.86595743602e-05
1.620950887e-10
4.86595201401e-05
1.84670198611e-10
4.86594601378e-05
2.08607950531e-10
4.86593952671e-05
2.32668049067e-10
4.86593273206e-05
2.54641404508e-10
4.86592593625e-05
2.70960761261e-10
4.86591963719e-05
2.75822894594e-10
4.86591458873e-05
2.59720095198e-10
4.86591180864e-05
2.07595342052e-10
4.86591267963e-05
9.55554444812e-11
4.86591949743e-05
-1.17856377758e-10
4.86593471184e-05
-5.16615526079e-10
4.86598335295e-05
-1.37739383278e-09
4.86608346448e-05
-2.64156395481e-09
4.86625599947e-05
-4.64319265453e-09
4.86654045582e-05
-7.84348153135e-09
4.86700088637e-05
-1.29460854725e-08
4.8677378756e-05
-2.1043382371e-08
4.8689090206e-05
-3.38555658129e-08
4.87076126e-05
-5.4113275624e-08
4.8736796088e-05
-8.61997408595e-08
4.87825521622e-05
-1.37161087993e-07
4.88544454421e-05
-2.18357481255e-07
4.89674142126e-05
-3.48723401721e-07
4.91442937094e-05
-5.60530249739e-07
4.94183903412e-05
-9.10254180469e-07
4.9832291647e-05
-1.49913020639e-06
5.04211045635e-05
-2.50670001068e-06
5.11434277156e-05
-4.23442256775e-06
5.16600235154e-05
-7.14628338942e-06
-1.15492174962e-05
5.10325093012e-05
5.27585762327e-05
6.04407240696e-06
5.5839312631e-05
1.23293193138e-05
5.75861958804e-05
1.35846279441e-05
5.81418751822e-05
1.20695952458e-05
5.79998879971e-05
9.4909912236e-06
5.75744907444e-05
6.8630462371e-06
5.71124124315e-05
4.66009086119e-06
5.67225102276e-05
3.01083763819e-06
5.6432508029e-05
1.86850899095e-06
5.62329792684e-05
1.12193523802e-06
5.61027791218e-05
6.55329764612e-07
5.60209743935e-05
3.73651089592e-07
5.59710014987e-05
2.08192689855e-07
5.5941133997e-05
1.13151713144e-07
5.59236018094e-05
5.96322338807e-08
5.59134732679e-05
3.00913150733e-08
5.59077043688e-05
1.41663544689e-08
5.59044350089e-05
5.86531492872e-09
5.59027392423e-05
1.79404366817e-09
5.59018296241e-05
-1.18846942554e-10
5.59013716486e-05
-8.66290732449e-10
5.59011587866e-05
-1.04756531802e-09
5.59010722174e-05
-9.77881532741e-10
5.59010457379e-05
-8.15902975245e-10
5.5901044776e-05
-6.38893804263e-10
5.59010540762e-05
-4.79333233343e-10
5.59010678568e-05
-3.47171943543e-10
5.59010889374e-05
-2.42395974582e-10
5.59011143106e-05
-1.6425915353e-10
5.59011311626e-05
-1.09886764585e-10
5.59011470522e-05
-7.31384593546e-11
5.59011552457e-05
-3.78894230504e-11
5.5901159692e-05
-1.44362124527e-11
5.59011616067e-05
2.16757079265e-12
5.59011614736e-05
1.42157943021e-11
5.5901159522e-05
2.32216551735e-11
5.59011559595e-05
3.02708602294e-11
5.59011508249e-05
3.6260625881e-11
5.59011439807e-05
4.18601001429e-11
5.5901135278e-05
4.78778126792e-11
5.59011245537e-05
5.5076860499e-11
5.59011115803e-05
6.39171693801e-11
5.5901096081e-05
7.44336908592e-11
5.59010778388e-05
8.64515187366e-11
5.59010569257e-05
9.97948299102e-11
5.59010344566e-05
1.13808546566e-10
5.59010054728e-05
1.35006729336e-10
5.59009707771e-05
1.57366727401e-10
5.59009303377e-05
1.81725711912e-10
5.59008837737e-05
2.08448760095e-10
5.59008308812e-05
2.37242414293e-10
5.59007717927e-05
2.67315727095e-10
5.59007071439e-05
2.96988813929e-10
5.59006382227e-05
3.23365066328e-10
5.5900567317e-05
3.41800665063e-10
5.59004984343e-05
3.44718786321e-10
5.59004388214e-05
3.19296646316e-10
5.59004051906e-05
2.41013475349e-10
5.59004485101e-05
5.18534199096e-11
5.59005396352e-05
-2.09469909427e-10
5.59007634728e-05
-7.40969237336e-10
5.59011731755e-05
-1.78748764323e-09
5.59019026479e-05
-3.37122917576e-09
5.59031645699e-05
-5.90517917579e-09
5.59052677451e-05
-9.9466631753e-09
5.59086792735e-05
-1.6357629425e-08
5.59141188402e-05
-2.64829883887e-08
5.59226973847e-05
-4.24341057834e-08
5.59361222482e-05
-6.75381346318e-08
5.59569881669e-05
-1.07065647848e-07
5.59892068857e-05
-1.69379611027e-07
5.60386356921e-05
-2.67785920209e-07
5.61136270013e-05
-4.2371446783e-07
5.62250703338e-05
-6.71973608174e-07
5.63842842491e-05
-1.0694681293e-06
5.65942629699e-05
-1.70910893312e-06
5.68247292716e-05
-2.73716625229e-06
5.69531451776e-05
-4.36283890063e-06
5.66429573615e-05
-6.83609623953e-06
-1.02065124711e-05
5.53002532349e-05
5.19840878119e-05
4.05998398955e-06
5.50624186781e-05
9.25098763777e-06
5.76543847601e-05
1.09926613824e-05
5.93708841698e-05
1.03530953737e-05
6.03253461016e-05
8.53652913204e-06
6.07667473755e-05
6.42164487811e-06
6.09185262828e-05
4.5083121874e-06
6.0931790815e-05
2.99757339168e-06
6.08924838818e-05
1.90781638337e-06
6.08425583373e-05
1.17186134303e-06
6.07988340827e-05
6.99054488648e-07
6.07657338122e-05
4.06751844224e-07
6.07425583792e-05
2.31368466089e-07
6.07270799169e-05
1.28630335257e-07
6.07170467629e-05
6.96655329837e-08
6.07106644827e-05
3.6473595639e-08
6.07066495357e-05
1.8181242399e-08
6.0704146792e-05
8.36802055475e-09
6.07026347166e-05
3.30601567901e-09
6.07017016864e-05
8.14045501141e-10
6.07011288481e-05
-2.93567243191e-10
6.07007848733e-05
-7.03651713794e-10
6.07005792406e-05
-7.72228360666e-10
6.07004579014e-05
-6.94543607417e-10
6.07003880135e-05
-5.69048705253e-10
6.07003497018e-05
-4.41094999716e-10
6.07003302955e-05
-3.27862946803e-10
6.0700321598e-05
-2.3382315148e-10
6.07003178211e-05
-1.60600165129e-10
6.0700314456e-05
-1.06612162575e-10
6.07003068785e-05
-6.56215265029e-11
6.07002993754e-05
-3.03791074343e-11
6.07002961063e-05
-1.10250133029e-11
6.07002941049e-05
4.44847537097e-12
6.07002922223e-05
1.64560005421e-11
6.0700289695e-05
2.61449948071e-11
6.07002858868e-05
3.44724989451e-11
6.0700280361e-05
4.20965832525e-11
6.07002737507e-05
4.86622018029e-11
6.0700265503e-05
5.62383226789e-11
6.07002553678e-05
6.52772502234e-11
6.07002431115e-05
7.61755261805e-11
6.0700228383e-05
8.91036147182e-11
6.07002106597e-05
1.04125572519e-10
6.07001890624e-05
1.21427467591e-10
6.07001615681e-05
1.41402451455e-10
6.07001321531e-05
1.64486634568e-10
6.07000989561e-05
1.90530976732e-10
6.07000610059e-05
2.19536780158e-10
6.070001787e-05
2.51327093259e-10
6.06999693817e-05
2.85376969949e-10
6.06999157878e-05
3.20568277078e-10
6.06998577655e-05
3.54777268094e-10
6.06997965628e-05
3.84431512813e-10
6.0699734382e-05
4.03895400233e-10
6.06996745282e-05
4.0449552963e-10
6.06996201826e-05
3.73524431144e-10
6.06995660808e-05
2.94917318671e-10
6.06994599588e-05
1.57630394745e-10
6.06993932666e-05
-1.43287299681e-10
6.06994770966e-05
-8.25271378189e-10
6.06996006317e-05
-1.91126897113e-09
6.06998785584e-05
-3.64925489434e-09
6.0700390044e-05
-6.41671360589e-09
6.07012559072e-05
-1.08125171375e-08
6.07026556651e-05
-1.7757351617e-08
6.0704852201e-05
-2.86795308361e-08
6.07082279567e-05
-4.58099997804e-08
6.07133263395e-05
-7.26366396527e-08
6.07208804169e-05
-1.14619624106e-07
6.07318004915e-05
-1.80299517581e-07
6.07470231814e-05
-2.830084424e-07
6.07668846632e-05
-4.43575756188e-07
6.07893241178e-05
-6.94412788333e-07
6.0805306318e-05
-1.08545048904e-06
6.07880958966e-05
-1.69189885204e-06
6.06713749297e-05
-2.62044519624e-06
6.03114873186e-05
-4.00295106932e-06
5.94355254428e-05
-5.96013465998e-06
-8.45073200049e-06
5.76797454439e-05
5.14185394177e-05
2.64144424711e-06
5.41736282903e-05
6.49589796021e-06
5.70183431758e-05
8.1479460034e-06
5.93579781469e-05
8.01346005825e-06
6.10446232927e-05
6.84988379658e-06
6.21534779838e-05
5.31279024289e-06
6.28329287703e-05
3.8288614694e-06
6.32260583191e-05
2.60444414911e-06
6.34426001488e-05
1.69127491426e-06
6.35566880454e-05
1.05777380053e-06
6.36142251207e-05
6.41517897133e-07
6.36418341393e-05
3.7914322174e-07
6.36541943692e-05
2.19008514474e-07
6.3659082416e-05
1.23742545972e-07
6.3660483312e-05
6.82647767196e-08
6.36603770438e-05
3.65798743952e-08
6.36597153295e-05
1.88429488144e-08
6.36589374185e-05
9.14583840243e-09
6.36582348748e-05
4.00841024373e-09
6.36576531678e-05
1.39563798353e-09
6.36572035783e-05
1.55934366849e-10
6.36568646442e-05
-3.64746237162e-10
6.36566199355e-05
-5.27487003387e-10
6.36564455269e-05
-5.20123313763e-10
6.36563226424e-05
-4.46186368464e-10
6.36562364362e-05
-3.54912394138e-10
6.36561761092e-05
-2.67586498816e-10
6.36561340467e-05
-1.91861898731e-10
6.36561049599e-05
-1.3163384813e-10
6.36560845531e-05
-8.63166396612e-11
6.36560714096e-05
-5.25567952503e-11
6.36560683168e-05
-2.72610051143e-11
6.36560669651e-05
-9.49879050281e-12
6.36560655971e-05
6.10719031485e-12
6.36560637456e-05
1.86776383028e-11
6.36560609349e-05
2.93874006789e-11
6.36560579303e-05
3.79078217144e-11
6.36560545388e-05
4.58423188596e-11
6.3656049525e-05
5.39318325239e-11
6.36560429477e-05
6.29858741656e-11
6.36560346249e-05
7.36837288714e-11
6.36560242982e-05
8.64906116904e-11
6.3656011685e-05
1.01648034819e-10
6.36559964573e-05
1.19317799727e-10
6.36559781705e-05
1.39762662757e-10
6.36559562535e-05
1.63404295035e-10
6.3655930301e-05
1.9049083137e-10
6.36559020555e-05
2.18759071363e-10
6.36558697673e-05
2.5169222808e-10
6.36558322191e-05
2.88591100165e-10
6.36557889586e-05
3.282684461e-10
6.36557396485e-05
3.69553242245e-10
6.36556838616e-05
4.1034680932e-10
6.36556210088e-05
4.47169389808e-10
6.36555503215e-05
4.74524077355e-10
6.3655470854e-05
4.83882467207e-10
6.3655382103e-05
4.62138774417e-10
6.36552874604e-05
3.89338784567e-10
6.36552042104e-05
2.40502066808e-10
6.36550750376e-05
-1.45743512966e-11
6.36548938755e-05
-6.44455301695e-10
6.3654658618e-05
-1.6762143191e-09
6.3654348668e-05
-3.3394176517e-09
6.36539122894e-05
-5.98033673189e-09
6.36532618355e-05
-1.01619783827e-08
6.36522453936e-05
-1.67408149532e-08
6.36506020785e-05
-2.70362493588e-08
6.36478904807e-05
-4.30985689161e-08
6.36433596887e-05
-6.81059002425e-08
6.3635716196e-05
-1.06976052232e-07
6.36227071775e-05
-1.67290316357e-07
6.36003629726e-05
-2.60664047297e-07
6.35615467832e-05
-4.04759463856e-07
6.34931926849e-05
-6.26058779801e-07
6.33710988647e-05
-9.63356966402e-07
6.31504494035e-05
-1.47124943835e-06
6.27504549543e-05
-2.22045061612e-06
6.20347490945e-05
-3.28724507564e-06
6.07971975725e-05
-4.72258307342e-06
-6.46678224949e-06
5.88132480786e-05
5.10533915669e-05
1.58805210916e-06
5.34484953196e-05
4.1007935153e-06
5.62632914522e-05
5.33314934556e-06
5.88724969208e-05
5.40425426012e-06
6.09842313506e-05
4.73814923241e-06
6.25411636649e-05
3.75585789725e-06
6.36116632304e-05
2.75836211543e-06
6.43085882298e-05
1.90751939114e-06
6.47429089022e-05
1.25695458693e-06
6.50041729737e-05
7.9651020002e-07
6.51568272615e-05
4.88864033563e-07
6.524381952e-05
2.92151282407e-07
6.52922482306e-05
1.70580052471e-07
6.53185492005e-05
9.74417407393e-08
6.53324074369e-05
5.44065790839e-08
6.53394079581e-05
2.95793878504e-08
6.53427163769e-05
1.55345167484e-08
6.53440994359e-05
7.76268216749e-09
6.53445275626e-05
3.58020835339e-09
6.5344513387e-05
1.40974655533e-09
6.53443252293e-05
3.44022232816e-10
6.53440901876e-05
-1.29701881566e-10
6.53438692177e-05
-3.06489181919e-10
6.53436835364e-05
-3.34452549255e-10
6.53435369155e-05
-2.99559145986e-10
6.53434256525e-05
-2.43619084645e-10
6.53433439728e-05
-1.85923486739e-10
6.53432866318e-05
-1.34588019368e-10
6.53432479029e-05
-9.29892773252e-11
6.53432224016e-05
-6.09143618606e-11
6.53432055802e-05
-3.58020300612e-11
6.53431926042e-05
-1.42396132927e-11
6.53431800751e-05
3.19960216765e-12
6.53431726092e-05
1.38243183634e-11
6.53431680369e-05
2.35640127901e-11
6.53431652469e-05
3.2541371714e-11
6.5343162528e-05
4.10031688602e-11
6.5343159265e-05
4.94504371745e-11
6.53431550777e-05
5.83987067795e-11
6.53431497318e-05
6.85235718721e-11
6.53431430913e-05
8.04103576421e-11
6.53431350538e-05
9.45169356263e-11
6.53431255001e-05
1.11160012792e-10
6.53431142472e-05
1.30571493035e-10
6.53431010459e-05
1.53005032331e-10
6.53430857085e-05
1.78777206811e-10
6.53430679762e-05
2.08231183692e-10
6.53430453731e-05
2.41320007216e-10
6.53430184609e-05
2.78466068554e-10
6.53429872321e-05
3.1957945296e-10
6.53429510794e-05
3.64120966715e-10
6.53429092116e-05
4.11099310083e-10
6.53428605368e-05
4.58746448966e-10
6.53428035097e-05
5.04051554433e-10
6.53427358172e-05
5.42167259313e-10
6.53426539786e-05
5.65655022064e-10
6.53425525741e-05
5.63397974935e-10
6.53424225385e-05
5.1911055061e-10
6.53422533172e-05
4.09359083056e-10
6.53420309159e-05
2.07473571847e-10
6.5341622727e-05
-2.36538348034e-10
6.53410653854e-05
-1.11903690049e-09
6.53402006572e-05
-2.47471199445e-09
6.5338854735e-05
-4.63436220239e-09
6.53367455151e-05
-8.05270830057e-09
6.5333407836e-05
-1.34030977647e-08
6.53280902359e-05
-2.17186431794e-08
6.53195891911e-05
-3.45975471304e-08
6.53059741982e-05
-5.4490978491e-08
6.52841426035e-05
-8.51444712952e-08
6.52491003944e-05
-1.32248046944e-07
6.51927996024e-05
-2.04363078332e-07
6.51022383615e-05
-3.14198251048e-07
6.49563954818e-05
-4.80216095744e-07
6.47213887564e-05
-7.28350504305e-07
6.4343225995e-05
-1.09308688652e-06
6.37384917376e-05
-1.61571620916e-06
6.27865959009e-05
-2.33534902588e-06
6.1332741971e-05
-3.26872894033e-06
-4.36655405343e-06
5.9232514007e-05
5.08419470625e-05
7.46104771772e-07
5.29636460232e-05
1.97909384168e-06
5.56691560414e-05
2.62763896452e-06
5.83636858639e-05
2.70972412848e-06
6.06900475328e-05
2.41178742337e-06
6.25089890904e-05
1.93691636397e-06
6.3828556936e-05
1.43879437365e-06
6.47310813699e-05
1.00499515079e-06
6.53198893544e-05
6.68146951117e-07
6.56896247829e-05
4.26775186337e-07
6.59146560783e-05
2.63833098646e-07
6.60480823613e-05
1.58725322583e-07
6.61253947465e-05
9.32679036079e-08
6.61692175106e-05
5.36190734248e-08
6.61934808939e-05
3.01432499832e-08
6.62065417878e-05
1.6518521626e-08
6.62133126763e-05
8.76355221537e-09
6.62166321139e-05
4.4431516248e-09
6.62181134779e-05
2.09875804731e-09
6.62186538385e-05
8.69267292807e-10
6.62187419228e-05
2.55900985171e-10
6.62186365048e-05
-2.4226104876e-11
6.62184652372e-05
-1.35181415182e-10
6.62182913461e-05
-1.60515286545e-10
6.62181398719e-05
-1.47994384535e-10
6.6218017983e-05
-1.21674757933e-10
6.62179249041e-05
-9.28541738955e-11
6.62178566669e-05
-6.63780159341e-11
6.62178077341e-05
-4.41080424474e-11
6.62177727823e-05
-2.60508305557e-11
6.62177480938e-05
-1.11747520522e-11
6.62177324665e-05
1.41781831576e-12
6.62177236191e-05
1.2166684299e-11
6.62177165922e-05
2.1038710533e-11
6.62177117704e-05
2.86378338734e-11
6.62177085666e-05
3.60505894308e-11
6.62177060364e-05
4.38604469577e-11
6.62177035798e-05
5.22151147874e-11
6.62177007144e-05
6.15268592082e-11
6.62176971451e-05
7.22869291976e-11
6.62176926893e-05
8.49681628572e-11
6.62176872479e-05
9.99897350509e-11
6.62176807434e-05
1.17688442507e-10
6.62176730128e-05
1.38347369333e-10
6.62176637882e-05
1.6227655271e-10
6.62176527588e-05
1.89840459795e-10
6.62176396046e-05
2.21390701538e-10
6.62176237871e-05
2.57069435693e-10
6.62176048345e-05
2.97255859883e-10
6.62175822053e-05
3.4197966862e-10
6.62175551251e-05
3.90922986366e-10
6.62175224411e-05
4.43482331912e-10
6.62174824408e-05
4.98512943994e-10
6.62174324469e-05
5.53922478914e-10
6.62173682335e-05
6.06302790176e-10
6.62172833977e-05
6.50393702675e-10
6.62171685882e-05
6.78043800032e-10
6.62170105932e-05
6.76828842731e-10
6.62167916274e-05
6.27977182282e-10
6.6216498774e-05
5.00006540383e-10
6.62160075851e-05
2.5440900008e-10
6.62151050928e-05
-2.16661922449e-10
6.62138040984e-05
-1.17370939116e-09
6.62117446847e-05
-2.57485311404e-09
6.62084819658e-05
-4.78983244345e-09
6.62033088423e-05
-8.22991426269e-09
6.61950979245e-05
-1.35077957594e-08
6.61820638664e-05
-2.15635870035e-08
6.6161387244e-05
-3.38143429652e-08
6.61286271364e-05
-5.2384252247e-08
6.60768130571e-05
-8.04338995742e-08
6.59950602514e-05
-1.2261013613e-07
6.58664870077e-05
-1.85624930082e-07
6.56651778227e-05
-2.78907106107e-07
6.53519742699e-05
-4.15147136421e-07
6.48691758924e-05
-6.10288791706e-07
6.41353481813e-05
-8.8188823152e-07
6.30440031448e-05
-1.24400360764e-06
6.14731291747e-05
-1.69785470496e-06
-2.21433472327e-06
5.93209101498e-05
5.07460551167e-05
4.92541230226e-11
5.27251053146e-05
4.31436092372e-11
5.53527289754e-05
1.49379704058e-11
5.80624530011e-05
-7.91807318497e-14
6.04742453901e-05
-5.0151438193e-12
6.24111664973e-05
-4.72703661197e-12
6.38499620267e-05
-1.03352625364e-12
6.48549533971e-05
4.06031247033e-12
6.55230927754e-05
7.8640812138e-12
6.59498583358e-05
9.88381621303e-12
6.62136814994e-05
1.02050462817e-11
6.63723979627e-05
9.03115736067e-12
6.64656593197e-05
6.65025951244e-12
6.65192752573e-05
3.22047461622e-12
6.65494195884e-05
-9.92538832803e-13
6.65659433351e-05
-5.18373422536e-12
6.65747154942e-05
-8.57556785479e-12
6.65791688192e-05
-1.012514353e-11
6.65812771703e-05
-9.60590058516e-12
6.65821543644e-05
-7.93279096687e-12
6.6582416068e-05
-5.74184939653e-12
6.65823953133e-05
-3.44543979007e-12
6.65822611522e-05
-1.02325792954e-12
6.65820998099e-05
8.8323748452e-13
6.6581949531e-05
2.35152634531e-12
6.65818241274e-05
3.7466848099e-12
6.65817260403e-05
5.24595613963e-12
6.65816526759e-05
7.01773367236e-12
6.65815995031e-05
9.07602146471e-12
6.65815618917e-05
1.15565208747e-11
6.65815360151e-05
1.47279752543e-11
6.65815187888e-05
1.87126260815e-11
6.65815078587e-05
2.31959454838e-11
6.65815011195e-05
2.79244351983e-11
6.65814968439e-05
3.31319084796e-11
6.65814941472e-05
3.90263092172e-11
6.65814924929e-05
4.58134087137e-11
6.6581491288e-05
5.37121682332e-11
6.6581490097e-05
6.29861989591e-11
6.65814886342e-05
7.39544990901e-11
6.65814867375e-05
8.69792206894e-11
6.65814843566e-05
1.02424744652e-10
6.65814814555e-05
1.20626484613e-10
6.65814779219e-05
1.41909864929e-10
6.65814735929e-05
1.66635473219e-10
6.65814682802e-05
1.95205669331e-10
6.65814617027e-05
2.28019574605e-10
6.65814533738e-05
2.65372003364e-10
6.65814428518e-05
3.07623984151e-10
6.65814296177e-05
3.54945621793e-10
6.65814128666e-05
4.07357131598e-10
6.65813913349e-05
4.64749277117e-10
6.65813629883e-05
5.26688493008e-10
6.65813245248e-05
5.92247079128e-10
6.65812707396e-05
6.59954005652e-10
6.6581193527e-05
7.27493603066e-10
6.65810802602e-05
7.91138589701e-10
6.65809116012e-05
8.45192912498e-10
6.65806579771e-05
8.81287522404e-10
6.65802733191e-05
8.84418116069e-10
6.65797069143e-05
8.20637589461e-10
6.65788328214e-05
6.57345429249e-10
6.65772584611e-05
4.00681313982e-10
6.65747072385e-05
-2.34697075951e-11
6.65707279674e-05
-8.10453650983e-10
6.65644830755e-05
-1.98500698733e-09
6.65545896611e-05
-3.6143221693e-09
6.65389327904e-05
-5.90671272541e-09
6.65142036579e-05
-9.08517105529e-09
6.64752399223e-05
-1.34202789628e-08
6.64140337197e-05
-1.92273767629e-08
6.63182618747e-05
-2.683837524e-08
6.61691682402e-05
-3.65314380832e-08
6.59386401082e-05
-4.83790680069e-08
6.55854562526e-05
-6.19633760782e-08
6.5051086181e-05
-7.5918784477e-08
6.42564673211e-05
-8.72691810657e-08
6.31032139738e-05
-9.07498234385e-08
6.14848494125e-05
-7.94897668067e-08
-4.57202283184e-08
5.93162351349e-05
5.07460539895e-05
-7.46004991462e-07
5.27251040809e-05
-1.97900741183e-06
5.5352728868e-05
-2.62761007566e-06