/*--------------------------------*- C++ -*----------------------------------*\
| =========                 |                                                 |
| \\      /  F ield         | OpenFOAM: The Open Source CFD Toolbox           |
|  \\    /   O peration     | Version:  2106                                  |
|   \\  /    A nd           | Website:  www.openfoam.com                      |
|    \\/     M anipulation  |                                                 |
\*---------------------------------------------------------------------------*/
FoamFile
{
    version     2.0;
    format      ascii;
    arch        "LSB;label=32;scalar=64";
    class       volScalarField;
    location    "0.015";
    object      p;
}
// * * * * * * * * * * * * * * * * * * * * * * * * * * * * * * * * * * * * * //

dimensions      [0 2 -2 0 0 0 0];

internalField   nonuniform List<scalar> 
11200
(
123.446045577
120.521156462
119.413503219
118.893708646
118.533523389
118.243567895
117.983000201
117.731190607
117.479232205
117.223228429
116.961333705
116.692602314
116.416461791
116.132465377
115.840199717
115.539217501
115.228996874
114.909001685
114.578655879
114.237360781
113.884488886
113.519391614
113.141402406
112.749838507
112.344002427
111.923182889
111.486655144
111.033682064
110.563515141
110.075394285
109.56854788
109.042193111
108.495536256
107.927772948
107.338088461
106.725658007
106.089647095
105.429211927
104.743499784
104.031649382
103.292791182
102.526047623
101.730533227
100.905354603
100.04961032
99.1623906381
98.2427770455
97.2898415638
96.3026457081
95.2802389962
94.2216568596
93.1259178272
91.9920198017
90.8189351851
89.6056046084
88.3509290188
87.0537597751
85.7128862034
84.3270198833
82.8947748306
81.4146427321
79.8849614438
78.3038753535
76.6692858433
74.9787828477
73.2295607929
71.4183097715
69.5410706345
67.5930464858
65.5683654638
63.4596358312
61.2574212633
58.9495257278
56.5197743582
53.9460574033
51.1967294888
48.2249403942
44.9598899554
41.2496571591
36.4579778328
121.650477382
120.294823466
119.506711887
119.010638132
118.624145372
118.303865539
118.020623651
117.754044058
117.493040931
117.231717648
116.966798068
116.69641167
116.419423637
116.135054118
115.842666092
115.541678327
115.231521891
114.911628214
114.581420871
114.240286076
113.887584797
113.522664112
113.144855216
112.753473922
112.3478215
111.927185392
111.490841233
111.038054516
110.568077036
110.080148643
109.573497618
109.047341063
108.500885217
107.933325692
107.343847733
106.731626543
106.095827649
105.435607296
104.750112838
104.038483121
103.299848811
102.533332606
101.738049357
100.913106106
100.057602002
99.1706280481
98.251266663
97.2985910527
96.3116642423
95.2895376573
94.2312491184
93.1358201322
92.0022522997
90.8295226052
89.6165773423
88.3623244453
87.065623919
85.7252758709
84.3400054237
82.9084436955
81.4291042547
79.9003520396
78.3203595441
76.687054296
74.9980755012
73.2506886015
71.4416724543
69.5671832803
67.6225680034
65.602103375
63.4987077396
61.303398947
59.0045514073
56.5869156106
54.0299107731
51.3046969862
48.3693591884
45.1640917919
41.5836368782
37.4169169436
120.653286418
120.001197616
119.450311056
119.014742156
118.645967201
118.326539524
118.038615573
117.766976518
117.501988355
117.237866731
116.971096027
116.69952877
116.421804197
116.136979513
115.844317708
115.543181357
115.232986592
114.913127906
114.58294138
114.241847151
113.889200021
113.524342922
113.14660495
112.755300857
112.34973198
111.929186928
111.492940219
111.040250094
110.570369741
110.082539432
109.575987825
109.049932324
108.503579433
107.93612496
107.346754358
106.734643069
106.098956907
105.438852452
104.753477485
104.041971396
103.303465518
102.53708337
101.741940814
100.917146138
100.061800006
99.1749952757
98.2558166697
97.3033402717
96.3166326309
95.2947494803
94.2367339246
93.1416139451
92.0083990593
90.8360759322
89.6236027252
88.3699019402
87.0738514246
85.7342730371
84.3499183109
82.9194502061
81.44142034
79.9142390907
78.3361476796
76.7051909659
75.0191194428
73.2753274791
71.4707702054
69.6018407136
67.6642102691
65.6526104565
63.5605412413
61.3799060652
59.1004885234
56.7091532269
54.1888402806
51.5171094859
48.6648504831
45.5985368183
42.2808307999
38.6857675379
120.102492332
119.740928757
119.341993857
118.974119863
118.638259693
118.331965365
118.047356553
117.775288411
117.50878503
117.243076664
116.974986153
116.702426006
116.423995043
116.138687512
115.845710263
115.544376375
115.23404167
114.914068409
114.583862996
114.242787523
113.890159714
113.525328566
113.147621596
112.75635121
112.350816547
111.93030435
111.494090362
111.04144061
110.571604693
110.083823956
109.577324978
109.051324662
108.505029417
107.937635029
107.348327122
106.736281467
106.100664332
105.440632885
104.755335638
104.043912862
103.305496959
102.539212749
101.744177702
100.919502075
100.064288949
99.1776341816
98.2586261467
97.3063452319
96.3198632176
95.298242274
94.2405333841
93.1457741474
92.0129858111
90.8411693449
89.6293004004
88.3763229429
87.0811412754
85.7426102546
84.3595234083
82.9305973202
81.4544527975
79.9295971084
78.3543585878
76.7268694534
75.0450307546
73.3064435575
71.5083270638
69.6474197301
67.7198550602
65.7210020061
63.6452627473
61.485837434
59.2343873175
56.8806966845
54.4123955455
51.814947324
49.0729099498
46.1756568132
43.1265496962
39.9619155478
119.7680609
119.537354473
119.236468708
118.926060279
118.62222838
118.331275997
118.052546615
117.781878978
117.51492516
117.248167626
116.978985951
116.705501085
116.426359299
116.140538053
115.847207519
115.54564255
115.235169714
114.915139195
114.584909447
114.243796904
113.891173598
113.526369388
113.148702726
112.757482464
112.352006034
111.931559045
111.495415149
111.042836138
110.573072053
110.085360299
109.578930872
109.053000461
108.506776711
107.939456201
107.350225198
106.738260084
106.102727794
105.442786264
104.75758494
104.04626525
103.307960994
102.541798688
101.746897874
100.92237134
100.067325219
99.1808589654
98.2620651419
97.3100302077
96.3238330441
95.3025442719
94.2452251559
93.1509258551
92.0186829564
90.8475161714
89.6364240993
88.3843788662
87.0903193501
85.7531424817
84.3716908948
82.9447348275
81.4709725068
79.9489942636
78.3772684065
76.7541010253
75.0775954113
73.3456054507
71.5556787162
69.7049860443
67.7902367669
65.8075791345
63.7524887073
61.6196576559
59.4029089624
57.0952183884
54.6890075754
52.1770472485
49.5548462245
46.8265871452
44.0138636484
41.1672495037
119.564548128
119.388598762
119.147236561
118.879920549
118.603122587
118.326963064
118.055094943
117.786887753
117.520237757
117.252883889
116.982850087
116.708549157
116.428733544
116.142399271
115.848699054
115.546879421
115.236239214
114.916103068
114.58580431
114.244670954
113.892048468
113.527257224
113.149612932
112.758421226
112.352977053
111.932564216
111.496455388
111.043912387
110.574186068
110.086516283
109.580131764
109.054251284
108.508082057
107.940819917
107.351651228
106.739752812
106.104292287
105.444428574
104.759312362
104.04808639
103.30988612
102.543840132
101.749070491
100.924693083
100.069817873
99.1835491684
98.2649858907
97.3132205891
96.327340243
95.3064255867
94.2495501418
93.1557789552
92.0241667257
90.8537552238
89.6435699263
88.3926157055
87.0998714046
85.7642832637
84.3847585402
82.960162785
81.4892836553
79.9708137004
78.4033707963
76.7854387742
75.1153505378
73.3912556357
71.6110817673
69.7724927558
67.8728446476
65.9091450601
63.8780275457
61.7757654111
59.598370581
57.3418715543
55.0029458848
52.580205637
50.0766998868
47.5046654845
44.8914336351
42.2843635
119.441288513
119.284396899
119.077011541
118.839718944
118.583958848
118.320616828
118.055498949
117.790218658
117.524386236
117.256838953
116.986226549
116.71127968
116.43088944
116.144096375
115.850053609
115.547990673
115.237184942
114.916941084
114.586577408
114.24541613
113.892783415
113.527997409
113.150368747
112.759200103
112.353784546
111.933404913
111.4973335
111.044831815
110.575150415
110.087528709
109.581195218
109.055367588
108.509251849
107.9420453
107.35293561
106.741100632
106.105709162
105.445921128
104.760888377
104.049755418
103.311659705
102.545732208
101.751097923
100.926876309
100.072181664
99.1861234798
98.2678068193
97.3163325569
96.3307970562
95.3102925905
94.253906894
93.1607222922
92.0298145215
90.860251054
89.6510888183
88.4013712455
87.1101245284
85.7763526164
84.3990297654
82.9770911039
81.50943651
79.9949095266
78.4322820052
76.8202414916
75.157376499
73.4421580942
71.6729228001
69.8478585978
67.9649988868
66.022233973
64.0173570194
61.9481737729
59.8127255037
57.6097124532
55.3392575586
53.0042082915
50.6122576822
48.1792474435
45.7324524574
43.3115641288
119.366952047
119.214599984
119.025827673
118.808156637
118.567434284
118.314019117
118.054608514
117.79210246
117.527278906
117.259812463
116.98887221
116.713475311
116.432651618
116.14549654
115.851175179
115.54890982
115.237963995
114.917628196
114.587208679
114.246018762
113.893375053
113.528590282
113.150972404
112.759821185
112.354427866
111.934074047
111.498031171
111.04556017
110.575911049
110.088322983
109.582024545
109.056233929
108.510159263
107.94299911
107.353940774
106.742162515
106.106833722
105.447115651
104.762161763
104.051118277
103.31312479
102.547314901
101.752816798
100.928753827
100.074245037
99.1884057261
98.2703479527
97.3191810565
96.3340124187
95.3139472049
94.2580885423
93.1655374959
92.0353926419
90.866749274
89.6586981868
88.4103240504
87.1207033458
85.7889018362
84.4139716131
82.9949460638
81.5308325462
80.0206211707
78.4632481674
76.8576190821
75.2025927401
73.4969756166
71.7395254307
69.9289619395
68.0639928177
66.1433669518
64.1659731663
62.1310133409
60.038294334
57.8887058169
55.6849757706
53.4328042048
51.1424594925
48.8308598536
46.5230601588
44.25134329
119.324378236
119.171855291
118.992684901
118.786660557
118.555471545
118.308714444
118.053366067
117.792983163
117.529040765
117.261760461
116.990673187
116.715007845
116.433904012
116.146505288
115.851991596
115.549583989
115.238538468
114.91813659
114.587676396
114.24646478
113.893812447
113.529028432
113.151418189
112.760279405
112.354902119
111.934567107
111.498545316
111.046097395
110.576473426
110.088912949
109.582645019
109.056888178
108.510850409
107.943729509
107.354714407
106.742984598
106.107710725
105.44805532
104.763173379
104.052213017
103.314316157
102.548619235
101.754253905
100.930347736
100.076024943
99.1904071256
98.2726140342
97.3217643078
96.3369762467
95.3173685246
94.2620608127
93.1701742735
92.0408319151
90.8731587422
89.6662817292
88.4193296745
87.1314328582
85.8017224345
84.4293297184
83.0133848544
81.5530116818
80.0473401846
78.4955125373
76.8966376365
75.2498427162
73.5542719519
71.8091012715
70.0135678992
68.1670216381
66.2690088966
64.3194058888
62.3186262572
60.267938174
58.1699362737
56.0292167782
53.8532850389
51.6536692347
49.4471242752
47.2560440032
45.1068053887
119.304902616
119.151582886
118.976463656
118.77582884
118.549237183
118.305802655
118.052554092
117.793315424
117.529881579
117.262740685
116.991607437
116.715822197
116.434584604
116.147066108
115.852456381
115.549977192
115.238881436
114.918446459
114.587966303
114.246744635
113.894089305
113.529307745
113.151702727
112.760572326
112.355205696
111.93488321
111.498875634
111.046443579
110.576837249
110.089296331
109.583050004
109.05731708
108.511306256
107.944216399
107.35523685
106.743547946
106.108321527
105.448721482
104.76390446
104.053020578
103.315214179
102.549624641
101.755387201
100.931633809
100.077494014
99.1920959025
98.2745670996
97.3240358343
96.3396320632
95.3204885793
94.2657421552
93.174534715
92.0460144744
90.8793370536
89.6736666527
88.4281773284
87.1420543798
85.8144959402
84.4447149761
83.0319420202
81.5754271195
80.07443667
78.5282657181
76.9362785717
75.2978798172
73.6125297567
71.8797942826
70.0993952911
68.2712732669
66.3956888373
64.4733740502
62.5057520416
60.4952501896
58.4457330876
56.3630738596
54.2558498966
52.1360863451
50.0198952971
47.9273048528
45.8803825051
119.304906232
119.15159994
118.976491539
118.775865713
118.549282382
118.305855215
118.052613042
117.793379977
117.529951069
117.262814564
116.991685287
116.715903725
116.434669607
116.147154457
115.852548007
115.550072079
115.238979599
114.918547975
114.588071327
114.246853396
113.894201971
113.529424776
113.151824115
112.760698712
112.355337686
111.935021565
111.499021254
111.046597551
110.577000902
110.08947128
109.583238214
109.057520958
108.511528749
107.944461113
107.355508228
106.743851377
106.108663519
105.44910995
104.764349006
104.053532837
103.315808246
102.550317597
101.756199773
100.932591171
100.078626759
99.1934412134
98.276170158
97.3259515266
96.3419270228
95.3232436716
94.2690555158
93.1785254317
92.0508270453
90.885146827
89.6806864394
88.4366653892
87.1523241132
85.826927648
84.4597699795
83.0501794581
81.5975260995
80.1012315721
78.5607775323
76.9757106851
75.3456731244
73.6704504813
71.9499933734
70.1844675
68.3743388365
66.5204857826
64.624354596
62.6881739763
60.7152455285
58.7103241585
56.680089203
54.6336750737
52.5831730043
50.5439626708
48.5342934479
46.5734076963
119.324389121
119.171906814
118.992769176
118.786772155
118.555608
118.308872912
118.053543671
117.793177448
117.529249705
117.261982452
116.990907018
116.71525264
116.434159192
116.146770493
115.852266612
115.549868735
115.238832997
114.918441127
114.587991396
114.246790982
113.894150159
113.529378261
113.151781812
112.760657988
112.355297403
111.934981314
111.498981145
111.046558129
110.576963102
110.089436413
109.583208
109.057497592
108.511514987
107.944460377
107.355524744
106.743890337
106.108731279
105.449214254
104.764499264
104.053740472
103.316087117
102.550684524
101.756675186
100.933199905
100.079399012
99.1944136908
98.2773874632
97.3274678356
96.3438080945
95.3255692977
94.271922504
93.1820512125
92.0551540388
90.8904477413
89.687170685
88.444586844
87.1619904951
85.838711791
84.474123437
83.0676487329
81.6187712669
80.1270473474
78.5921226161
77.0137533127
75.3918309457
73.7264156588
72.0177830759
70.266488878
68.4734528824
66.6400710447
64.7683661831
62.8611878878
60.9224721279
58.9575684935
56.9736291461
54.9800276024
52.9887286181
51.0144968744
49.0744310402
47.1861608365
119.366970341
119.214687026
119.025969927
118.808344691
118.567663787
118.314285195
118.054906286
117.792427794
117.527628411
117.260183472
116.989262734
116.713883924
116.433077386
116.145938894
115.851633778
115.549384482
115.238454791
114.918135522
114.587733345
114.246562278
113.893937481
113.529173049
113.15157753
112.76045094
112.355085132
111.934762413
111.498754998
111.046324741
110.576722984
110.089190536
109.582957803
109.057245015
108.511262541
107.944211231
107.355282845
106.743660577
106.108519678
105.449028171
104.764347668
104.053634273
103.316039586
102.550711802
101.756796907
100.93343996
100.079786452
99.1949838352
98.2781832363
97.3285413717
96.3452226655
95.3274016657
94.2742657805
93.1850183058
92.0588818144
90.8951020594
89.6929524949
88.4517395421
87.1708087579
85.8495521637
84.4874170256
83.0839163915
81.638641831
80.1512791156
78.6216275889
77.0496245917
75.4353763842
73.7791978433
72.0816620811
70.3436650558
68.5665092102
66.7520113725
64.902641858
63.0217022953
61.1135489845
59.1838681145
57.2399997757
55.2912920524
53.349435463
51.4287166264
49.5457013658
47.7175731468
119.441314448
119.284521474
119.077214728
118.839986766
118.584284746
118.320993683
118.055919765
117.790677555
117.524878479
117.257360823
116.986775281
116.711853347
116.431486777
116.144716599
115.850696237
115.548655349
115.237871594
114.917650202
114.587310565
114.246176928
113.893569798
113.528811566
113.151213618
112.760079048
112.354701644
111.934365108
111.49834266
111.045896898
110.576279745
110.088732508
109.582486083
109.056761223
108.5107689
107.943710619
107.354778868
106.7431577
106.108023417
105.448545318
104.763886559
104.053205098
103.315654694
102.550386225
101.756548975
100.933292
100.079765638
99.1951232228
98.2785230154
97.3291303475
96.3461200692
95.3286793659
94.2760109323
93.1873365389
92.0619011159
90.8989774661
89.6978716999
88.4579296518
87.1785444186
85.8591652563
84.4993081794
83.0985686227
81.6566366635
80.1733154361
78.6485435969
77.0824228414
75.4752516381
73.8275672865
72.1401974753
70.4143244235
68.6515647215
66.8540680204
65.0246389101
63.1668874328
61.2854119429
59.3860214468
57.476003232
55.5644395407
53.6625722397
51.7842485285
49.9459644188
48.1654900409
119.564582198
119.388764396
119.147505721
118.880273798
118.603550677
118.327456309
118.055644064
117.78748513
117.520877306
117.253560898
116.983561084
116.709291727
116.429506111
116.143200798
115.849528773
115.547736484
115.237122769
114.917012585
114.586741817
114.24564885
113.893055686
113.528299319
113.15069344
112.759544277
112.354147946
111.933789733
111.497744001
111.045274192
110.575632816
110.088061614
109.581791922
109.056044999
108.51003234
107.942956094
107.35400954
106.742377589
106.107237493
105.447759679
104.763108652
104.052443995
103.314921588
102.549694788
101.755915849
100.932737439
100.079314301
99.1948051215
98.2783746287
97.3291959607
96.3464534363
95.3293456998
94.2770892652
93.1889226003
92.0641108454
90.9019512494
89.7017794876
88.4629770068
87.1849796719
85.8672880888
84.5094798162
83.1112238358
81.6722977932
80.1926086339
78.6722174308
77.1113692134
75.5105288209
73.8704239285
72.1920967361
70.4769657826
68.7268995373
66.9443036152
65.1322226023
63.2944594858
61.4357139496
59.5617461116
57.6795802476
55.7977782715
53.9268447555
52.0799736563
50.2736681808
48.5269368214
119.768103521
119.53756581
119.236810148
118.926505818
118.622765406
118.331891815
118.053229544
117.782619631
117.515716235
117.24900353
116.979862672
116.70641595
116.427310686
116.141525017
115.848229241
115.546697686
115.236257001
114.916255881
114.586048165
114.244978813
113.892403469
113.527642831
113.150021193
112.758849169
112.353425319
111.933036594
111.496958541
111.044455465
110.574780616
110.087176342
109.58087441
109.055096384
108.509054102
107.94195009
107.352977966
106.741323434
106.106164712
105.446673296
104.762014924
104.051350556
103.313837975
102.548632744
101.754889764
100.931764901
100.078416769
99.1940087168
98.2777111106
97.328703982
96.3461800109
95.3293479069
94.2774363305
93.189698455
92.0654172174
90.903911274
89.704541356
88.4667195571
87.1899188785
85.8736844596
84.5176470675
83.1215390987
81.685213484
80.2086660531
78.692062137
77.1357680549
75.5403882456
73.906808803
72.2362481653
70.5303159173
68.7910792124
67.0211377389
65.2237051514
63.402695988
61.5628161625
59.7096589213
57.8498202306
55.9910743087
54.1427429205
52.3167378825
50.5288076498
48.7986593215
120.102543288
119.741189247
119.342409904
118.974657962
118.638903204
118.332698106
118.048164321
117.776160093
117.509712117
117.244052824
116.976007016
116.703489023
116.425099412
116.139834002
115.846900464
115.545611442
115.235325827
114.915415701
114.585256459
114.244209366
113.891628499
113.526850752
113.149202922
112.757998306
112.352537437
111.932108582
111.495988122
111.043440918
110.573720709
110.086070418
109.579722424
109.053899095
108.507812909
107.940666717
107.351654953
106.73996369
106.104771656
105.445251159
104.760569006
104.049887669
103.312366147
102.547161761
101.753431612
100.930334238
100.077031499
99.1926907326
98.2764872464
97.3276066264
96.3452482263
95.3286289518
94.2769874209
93.1895888298
92.0657305725
90.9047487678
89.7060265073
88.4690017295
87.1931779811
85.8781370011
84.5235532811
83.1292112193
81.6950252762
80.2210637936
78.7075768804
77.1550291696
75.5641378553
73.9359164965
72.2717242299
70.5733212603
68.8429292725
67.0832955245
65.2977561802
63.4902936127
61.6655808498
59.829005111
57.9866635979
56.1453400344
54.3126298123
52.498000421
50.7141737454
48.9781413755
120.65335014
120.001521096
119.450811523
119.015377941
118.646717971
118.327385736
118.039540762
117.767968028
117.503036538
117.238964281
116.972237545
116.700710464
116.423023948
116.138238219
115.845620995
115.544530361
115.234364319
114.914519077
114.584381521
114.243332601
113.890732034
113.525924069
113.148238986
112.756992421
112.351486673
111.931011268
111.494843508
111.042248813
110.57248089
110.084781686
109.57838436
109.052511175
108.506374724
107.939178736
107.350117999
106.738379235
106.103141884
105.443578956
104.758858029
104.048142409
103.310592453
102.545366985
101.751624842
100.928526631
100.075236689
99.1909252629
98.2747709072
97.3259638683
96.3437091522
95.327230245
94.2757736314
93.1886139348
92.065059718
90.9044602037
89.7062147603
88.4697808594
87.1946856626
85.8805391508
84.527049455
83.1340409349
81.7014754019
80.2294769307
78.7183608233
77.1686670868
75.5811990852
73.9570668747
72.2977349274
70.6050775117
68.8814338162
67.1296649752
65.3532050049
63.5560980156
61.7430097406
59.9191866275
58.0903127375
56.2622164818
54.440460852
52.6308094615
50.8386616836
49.067387957
121.650588861
120.295292861
119.507405541
119.011502141
118.625155746
118.305000784
118.021866244
117.755380593
117.494460999
117.233212888
116.968361248
116.698035582
116.421099746
116.136772972
115.844427713
115.543468655
115.233364402
114.913542097
114.583401325
114.242328445
113.889691286
113.524838348
113.147099928
112.75579395
112.35022507
111.92968369
111.493447594
111.040782636
110.570943454
110.083174415
109.576707467
109.050765011
108.504559869
107.937295635
107.348167279
106.736361798
106.10105898
105.4414323
104.756649924
104.045875884
103.308271372
102.542996202
101.74921041
100.926076059
100.072759273
99.1884324954
98.272277071
97.3234861886
96.3412683396
95.3248513645
94.2734870957
93.1864566755
92.063076856
90.9027073416
89.7047576886
88.4686987532
87.1940738587
85.8805122387
84.527744962
83.1356235082
81.7041416069
80.2334606866
78.7239395252
77.1761682932
75.5910072286
73.96962872
72.3135666162
70.6247828266
68.9057035372
67.1592789585
65.3890323676
63.5990943928
61.7942099279
59.9796624462
58.1610289827
56.3438185589
54.5326101226
52.7305657336
50.930916415
49.088577909
123.446223806
120.521838736
119.41450723
118.894971769
118.53501465
118.245262241
117.984878885
117.733240291
117.481443586
117.225595861
116.963855221
116.695280155
116.419302684
116.135476192
115.84337098
115.542562357
115.232508301
114.912670412
114.582484435
114.24135171
113.888646376
113.523721218
113.145913491
112.754540913
112.348905654
111.928297835
111.491995173
111.039263366
110.569356599
110.081518157
109.574980803
109.048967183
108.502690245
107.935353775
107.34615292
106.734274868
106.098899646
105.439201005
104.754347444
104.0435034
103.305830544
102.540489242
101.746640186
100.923446222
100.070074377
99.1856981524
98.2695001779
97.3206752553
96.3384338482
95.3220061454
94.2706467415
93.1836400429
92.060306513
90.9000100125
89.7021663992
88.4662535122
87.1918228774
85.8785135783
84.5260684335
83.134352991
81.7033777389
80.2333241062
78.7245744873
77.1777469081
75.5937351595
73.9737575697
72.3194059782
70.6326768974
68.9160546155
67.1725587768
65.4057933809
63.6199824152
61.8199816018
60.0113198277
58.200275981
56.3934731982
54.597850608
52.8202788789
51.0439455374
49.1039221809
28.7668532964
25.3214884492
22.9772277115
21.0528487459
19.3912877251
17.9291790765
16.6298775693
15.4680445452
14.4245217603
13.483931232
12.6335753247
11.8627950274
11.1625309765
10.5250112519
9.94351943799
9.41221641934
8.92599990115
8.48039198057
8.07144748494
7.69567857229
7.34999226922
7.03163779825
6.73816206533
6.46737149485
6.21729941958
5.98617830506
5.77241580087
5.57457431315
5.39135321449
5.22157306961
5.06416190047
4.9181434381
4.78262663236
4.65679677051
4.53990787286
4.43127573595
4.33027193479
4.23631862202
4.14888347851
4.06747537783
3.99164179668
3.9209717311
3.85511039132
3.79370620062
3.73643943187
3.68295532297
3.63295147283
3.58616069857
3.54234060933
3.50126497588
3.4627303983
3.42654436424
3.392515409
3.36047697898
3.33026349125
3.3017319957
3.27475909104
3.24922769706
3.22499818739
3.20196258843
3.18002190268
3.15908437001
3.13906536686
3.11988701841
3.10147762738
3.08377124772
3.06670708334
3.05022901523
3.0342854069
3.01882896436
3.00381685225
2.98921022348
2.97497337574
2.96107358067
2.94748127146
2.93417028922
2.92111748442
2.90830178097
2.89570403233
2.88330743712
2.87109780168
2.85906313777
2.8471930028
2.83547853262
2.82391275003
2.81249070093
2.80120917025
2.79006627346
2.77906172531
2.76819710179
2.75747567913
2.74690228722
2.73648334021
2.72622742608
2.71614533224
2.70624991241
2.69655619217
2.68708159893
2.67784645635
2.6688738159
2.66019030923
2.65182591763
2.64381453721
2.63619378834
2.62900605545
2.6222992849
2.61612700246
2.6105487178
2.60563072379
2.60144705138
2.598080398
2.59562234272
2.59417439785
2.59384984736
2.59477447028
2.59708724715
2.60094215444
2.60650978083
2.61397860951
2.62355697012
2.63547476914
2.649985183
2.66736703107
2.68792686654
2.7120011767
2.73995769319
2.77219775359
2.80915881589
2.85131535923
2.89918027134
2.95330523601
3.01427972326
3.08272983193
3.15931380287
3.24471623581
3.33963728789
3.44477801519
3.56082019316
3.68839473918
3.82803921714
3.9801422945
4.14486322926
4.32202602242
4.51096938947
4.71036114177
4.91797090427
5.13021065256
5.34184596892
5.54528177834
5.72993593832
5.88135228603
5.98022391365
6.00141465723
5.91327149849
5.67768792031
5.25171546951
4.5903948501
3.65228970502
2.41300717706
1.00956266283
32.0397302534
28.0366896363
25.3633616058
23.2355723447
21.4377376952
19.8783635197
18.5057503628
17.2865795049
16.1968950554
15.2182301542
14.3358159793
13.5375570545
12.8133728082
12.1547513965
11.5544320172
11.0061693543
10.5045547913
10.0448760756
9.62300650497
9.23531571428
8.87859713522
8.55000893812
8.24702261592
7.96738198051
7.70906744119
7.47026610053
7.24934584688
7.04483421329
6.85539957962
6.67983458956
6.51704163695
6.36602112028
6.22586012915
6.09572343569
5.97484600253
5.86252508231
5.75811538047
5.66102271018
5.57069984507
5.48664143553
5.40837909498
5.33547550101
5.26751916792
5.2041280456
5.1449343718
5.08966491036
5.0380382943
4.98978056478
4.94461513403
4.9023040011
4.86261962731
4.82535245001
4.79032165338
4.75735513042
4.72628988484
4.69697500216
4.66926786484
4.64302878832
4.61814569749
4.59450833239
4.57201349774
4.55056578606
4.53007692209
4.51046573219
4.49165743309
4.47358318665
4.45617975881
4.43938857671
4.42315611151
4.40743283839
4.39217404493
4.37733901346
4.3628903222
4.34879381543
4.33501824559
4.32153619104
4.30832300476
4.29535617506
4.28261558406
4.27008295521
4.25774308784
4.24558281294
4.23359023395
4.22175558904
4.21007037921
4.19852882707
4.18712615593
4.17585944116
4.16472725766
4.15372873949
4.14286740806
4.13214481879
4.12156711758
4.11114085083
4.10087389484
4.09077926259
4.08086704488
4.0711551427
4.06165884951
4.05240014499
4.04340107589
4.03468973726
4.02629465464
4.01825054892
4.01059411893
4.00336859279
3.9966223416
3.99040753885
3.98478369078
3.97981773037
3.97558219324
3.97216062921
3.96964285798
3.96813028227
3.96773555883
3.96858252409
3.97080943518
3.97456751009
3.98002530485
3.98736832135
3.99680100119
4.00854801006
4.02285601315
4.03999679501
4.06026594441
4.0839876694
4.11151256931
4.14322219866
4.17952803968
4.22087123465
4.2677250365
4.32058698299
4.3799819674
4.44645265379
4.52055210731
4.6028333048
4.69382644665
4.79402164116
4.90383119851
5.02354103657
5.15325674344
5.29281248785
5.44166660474
5.59874516685
5.76224333619
5.92948482721
6.09626519266
6.25687455832
6.40317416569
6.52421023116
6.60537234522
6.62760254834
6.56660113389
6.3923580909
6.06944597707
5.55933485615
4.81999218824
3.81525826719
2.51585045937
1.05176273353
34.3176625388
30.4021357566
27.5621488061
25.2928696201
23.3884593589
21.7484233454
20.3132846713
19.0444238202
17.9143116523
16.9020456819
15.9911633924
15.168367108
14.4227094745
13.7450457994
13.1276481164
12.5639225235
12.0481977928
11.5755616093
11.1417331946
10.7429619775
10.3759461354
10.0377671313
9.72583394743
9.43783823689
9.17171602717
8.92561613258
8.69787263332
8.48698285861
8.29158761151
8.11045423198
7.94246157981
7.78658788699
7.64189927103
7.50754055868
7.38272785983
7.26674049006
7.15891616873
7.0586447103
6.96536362571
6.8785534124
6.7977339067
6.72246226155
6.65232979186
6.58694615348
6.52593733291
6.46897899042
6.41575914498
6.36599080334
6.31942866868
6.27581634151
6.23494601472
6.19661186062
6.16061050562
6.12675714583
6.09488070139
6.06482379187
6.03644030719
6.00959323836
5.98415664068
5.96001426639
5.93705839947
5.91518978858
5.89431674703
5.87435485257
5.85522614424
5.83685895019
5.81918762473
5.80215128138
5.78569426589
5.76976492846
5.75431646325
5.73930642745
5.72469570066
5.71044866905
5.6965326719
5.68291873765
5.66958096301
5.6564955519
5.64364133645
5.63099912345
5.61855253731
5.60628733731
5.59419048566
5.58225128666
5.57046034284
5.55881080244
5.5472968505
5.53591423772
5.52466060199
5.51353353994
5.50253532424
5.49166654125
5.48093136594
5.47033501427
5.45988313524
5.44958701715
5.43945473444
5.42950153097
5.41974037385
5.41019008793
5.40086981444
5.3918038731
5.38301692453
5.37453933923
5.36640331219
5.35864652349
5.35131155976
5.34444416303
5.33809618416
5.33232679298
5.32719972347
5.32278842943
5.3191718418
5.3164388421
5.31468852112
5.31402937601
5.31458285159
5.31648150298
5.31987250827
5.32491794398
5.3317965691
5.34070361276
5.35185283199
5.36548012849
5.38183983043
5.40121083914
5.42389255413
5.45020917938
5.48050802907
5.51515750057
5.55455013884
5.59909151149
5.64920286603
5.70531082487
5.76783587333
5.83718205985
5.91371091005
5.99771997929
6.08940428991
6.18880450401
6.29574691184
6.40975232139
6.52992699957
6.65480826428
6.78217545023
6.9088348515
7.03017587621
7.14003440235
7.22978773386
7.28824411912
7.30074795408
7.24859760041
7.1083675428
6.85159708354
6.44498607938
5.8551895621
5.04060948744
3.96947622118
2.61330944096
1.09350895828
36.1675919583
32.4524607487
29.5637636933
27.2134351177
25.2347423613
23.5330315219
22.0477461356
20.7378851007
19.5737796594
18.5328683412
17.5974464363
16.7532945957
15.9887830312
15.2942609175