/*--------------------------------*- C++ -*----------------------------------*\
| =========                 |                                                 |
| \\      /  F ield         | OpenFOAM: The Open Source CFD Toolbox           |
|  \\    /   O peration     | Version:  2106                                  |
|   \\  /    A nd           | Website:  www.openfoam.com                      |
|    \\/     M anipulation  |                                                 |
\*---------------------------------------------------------------------------*/
FoamFile
{
    version     2.0;
    format      ascii;
    arch        "LSB;label=32;scalar=64";
    class       volVectorField;
    location    "0.015";
    object      U;
}
// * * * * * * * * * * * * * * * * * * * * * * * * * * * * * * * * * * * * * //

dimensions      [0 1 -1 0 0 0 0];

internalField   nonuniform List<vector> 
11200
(
(0.662291994392 0.150693410331 0)
(0.558880109062 0.10314018503 0)
(0.385008444453 0.0509315419516 0)
(0.287366486363 0.0241432423035 0)
(0.23923343061 0.0114466680448 0)
(0.213311930104 0.0055268347555 0)
(0.199061155153 0.00271171276112 0)
(0.19136483195 0.00133259802444 0)
(0.187283331732 0.000646405393089 0)
(0.185167140686 0.000306317223421 0)
(0.184106503946 0.000141500966671 0)
(0.183601086614 6.45501951915e-05 0)
(0.183379403243 3.00346346303e-05 0)
(0.183296693136 1.49109128629e-05 0)
(0.183277804671 9.7031311587e-06 0)
(0.183287035523 1.12757677987e-05 0)
(0.183307065301 1.50952236936e-05 0)
(0.183328372883 2.00125022422e-05 0)
(0.183346888508 2.4481138359e-05 0)
(0.183361586752 2.80712765617e-05 0)
(0.183372803149 3.09875449149e-05 0)
(0.183381138847 3.34647872838e-05 0)
(0.183387207764 3.56753716803e-05 0)
(0.183391565181 3.77437243569e-05 0)
(0.183394681689 3.97795185786e-05 0)
(0.183396911827 4.18844586185e-05 0)
(0.183398495741 4.40469919093e-05 0)
(0.183399597436 4.61953218942e-05 0)
(0.18340034944 4.83169961931e-05 0)
(0.18340086681 5.04248421073e-05 0)
(0.183401228608 5.25335915026e-05 0)
(0.183401483327 5.46528757366e-05 0)
(0.183401664255 5.67871966007e-05 0)
(0.183401795518 5.8938333931e-05 0)
(0.183401894188 6.11069600523e-05 0)
(0.183401971822 6.32935759084e-05 0)
(0.183402034728 6.54976688817e-05 0)
(0.183402085466 6.77182806868e-05 0)
(0.183402124712 6.99549805893e-05 0)
(0.183402151095 7.22068515203e-05 0)
(0.183402160641 7.44714504377e-05 0)
(0.183402148719 7.67455608451e-05 0)
(0.183402113241 7.90256899032e-05 0)
(0.183402056044 8.13078682132e-05 0)
(0.183401981604 8.35884264794e-05 0)
(0.183401894264 8.58647980071e-05 0)
(0.183401795831 8.8134790084e-05 0)
(0.18340168716 9.03949398655e-05 0)
(0.183401570107 9.26424611769e-05 0)
(0.183401446565 9.48757520651e-05 0)
(0.183401318489 9.7093173143e-05 0)
(0.183401190171 9.92923965375e-05 0)
(0.183401070667 0.000101470413337 0)
(0.183400975336 0.00010362325442 0)
(0.183400928382 0.000105746662682 0)
(0.183400966779 0.000107836730154 0)
(0.183401145833 0.000109886850766 0)
(0.183401551995 0.000111882651786 0)
(0.18340232359 0.000113798418025 0)
(0.183403672928 0.000115587588346 0)
(0.18340596721 0.000117157989992 0)
(0.183409810825 0.000118472902471 0)
(0.183416006377 0.000119810943829 0)
(0.18342565344 0.000121713394141 0)
(0.183440579958 0.00012418937552 0)
(0.183463778666 0.000126894741409 0)
(0.183499853255 0.000129512747137 0)
(0.183555495211 0.000131956534125 0)
(0.183640104241 0.000135522384049 0)
(0.183771922085 0.000144446936777 0)
(0.18398215956 0.00015599847893 0)
(0.184315451762 0.000165240754587 0)
(0.184840829043 0.00017026297887 0)
(0.185678049792 0.000163693128547 0)
(0.187052522173 0.000114567493294 0)
(0.18937235317 -9.68627938584e-05 0)
(0.193584724105 -0.000885902419277 0)
(0.204321740273 -0.00406341941372 0)
(0.239061866415 -0.0183281762096 0)
(0.283514834332 -0.0825594534833 0)
(0.965390823348 0.289233337956 0)
(0.96306141963 0.251433273244 0)
(0.828354385022 0.156074415583 0)
(0.709339731502 0.0913155549913 0)
(0.630213336915 0.0522222266613 0)
(0.579279042548 0.0295054151655 0)
(0.547667371904 0.0164847394283 0)
(0.528879613262 0.00906482003883 0)
(0.518068704049 0.00488120276361 0)
(0.512006441283 0.00256220485495 0)
(0.508690506809 0.0013033100798 0)
(0.506923116136 0.000635027859519 0)
(0.506008737912 0.000288313301017 0)
(0.505554654023 0.000113109350973 0)
(0.505344051426 2.93877622068e-05 0)
(0.505258403948 -4.76219458876e-06 0)
(0.50523450298 -1.59070911157e-05 0)
(0.505238136923 -1.85776506166e-05 0)
(0.505251080833 -1.547930779e-05 0)
(0.505266003203 -1.0985766514e-05 0)
(0.505279974649 -6.44271402932e-06 0)
(0.505291799016 -2.36494813167e-06 0)
(0.505301243719 1.0644020068e-06 0)
(0.50530855746 3.81891327511e-06 0)
(0.505314173573 5.91725507238e-06 0)
(0.505318411739 7.37969989415e-06 0)
(0.505321461839 8.42052421277e-06 0)
(0.505323576475 9.32641099911e-06 0)
(0.50532504921 1.01014242089e-05 0)
(0.50532610462 1.07727734573e-05 0)
(0.505326881435 1.13805551376e-05 0)
(0.505327458691 1.19495049092e-05 0)
(0.50532789131 1.24898817197e-05 0)
(0.50532822088 1.30090631991e-05 0)
(0.505328476126 1.3513570184e-05 0)
(0.505328675477 1.40094360039e-05 0)
(0.505328829363 1.45013045574e-05 0)
(0.505328944583 1.49934590992e-05 0)
(0.505329027158 1.5490377905e-05 0)
(0.505329080228 1.59953937812e-05 0)
(0.505329102268 1.65094989718e-05 0)
(0.505329089447 1.70320597781e-05 0)
(0.505329038658 1.75612681576e-05 0)
(0.505328948395 1.80950908458e-05 0)
(0.505328818285 1.86335998452e-05 0)
(0.505328648061 1.91797651829e-05 0)
(0.505328434482 1.97374040936e-05 0)
(0.505328174214 2.03057438704e-05 0)
(0.505327868872 2.08852609275e-05 0)
(0.505327525564 2.14787210535e-05 0)
(0.505327157054 2.20892917619e-05 0)
(0.505326782424 2.27186287924e-05 0)
(0.505326429647 2.33652541366e-05 0)
(0.505326140438 2.40243248083e-05 0)
(0.505325976861 2.46892289964e-05 0)
(0.505326030851 2.53511323943e-05 0)
(0.505326442049 2.59942345942e-05 0)
(0.505327432356 2.6591045755e-05 0)
(0.505329355703 2.71021869189e-05 0)
(0.505332758744 2.74743121935e-05 0)
(0.505338657925 2.75716953509e-05 0)
(0.505348945579 2.72448234219e-05 0)
(0.50536630087 2.6008339841e-05 0)
(0.505393641865 2.18028099492e-05 0)
(0.505435349982 1.33192117173e-05 0)
(0.505499310133 -8.10954714337e-07 0)
(0.505598252872 -2.30070077114e-05 0)
(0.505752166826 -5.69415457421e-05 0)
(0.505992723585 -0.000107088920646 0)
(0.506367758466 -0.000178307400326 0)
(0.506954965856 -0.000287178365701 0)
(0.507883591745 -0.000467210751201 0)
(0.509361262192 -0.000773151255129 0)
(0.511740813639 -0.00130549053101 0)
(0.515663368967 -0.00229353378013 0)
(0.522304073031 -0.00432829742931 0)
(0.533915455384 -0.008985490947 0)
(0.55638411627 -0.0209386421924 0)
(0.599179471826 -0.0559441460891 0)
(0.630906951698 -0.160074284937 0)
(1.02235194647 0.237787778087 0)
(1.0839562259 0.292195756447 0)
(1.04106176966 0.231627119438 0)
(0.969291715859 0.162229648626 0)
(0.905657079438 0.106038810991 0)
(0.857182697384 0.0661286728315 0)
(0.823520063628 0.039804937302 0)
(0.801730999077 0.0232395279973 0)
(0.788296768781 0.0131906912226 0)
(0.780300968574 0.00728778413274 0)
(0.775675533693 0.00391697873183 0)
(0.773064159766 0.00203919389479 0)
(0.771622802695 0.00101663958184 0)
(0.770846489486 0.000472973369427 0)
(0.770441164235 0.000192425436846 0)
(0.770237751313 5.37760648397e-05 0)
(0.770140862916 -9.89970615405e-06 0)
(0.770102028282 -3.62539296624e-05 0)
(0.770092475298 -4.5345006146e-05 0)
(0.770094123651 -4.61841593709e-05 0)
(0.770100552686 -4.31079355754e-05 0)
(0.770108093714 -3.87250066392e-05 0)
(0.770115070648 -3.43139926322e-05 0)
(0.770120872692 -3.04429359855e-05 0)
(0.77012539824 -2.7334445059e-05 0)
(0.770128900952 -2.51037944846e-05 0)
(0.770131758126 -2.37128246011e-05 0)
(0.770133980504 -2.304354831e-05 0)
(0.770135556916 -2.28725191305e-05 0)
(0.770136708709 -2.31072121437e-05 0)
(0.770137577022 -2.35775835332e-05 0)
(0.770138231942 -2.41935762175e-05 0)
(0.770138727338 -2.49186249731e-05 0)
(0.770139108112 -2.5722586787e-05 0)
(0.770139404021 -2.6583304432e-05 0)
(0.770139633644 -2.74846995005e-05 0)
(0.770139808385 -2.84146322112e-05 0)
(0.770139936586 -2.93631730854e-05 0)
(0.770140024999 -3.03217648483e-05 0)
(0.770140076788 -3.12821282427e-05 0)
(0.770140091069 -3.2237132048e-05 0)
(0.770140065261 -3.31822774679e-05 0)
(0.770139996549 -3.41170297751e-05 0)
(0.770139882357 -3.50425119642e-05 0)
(0.770139720938 -3.59575708087e-05 0)
(0.770139510784 -3.68582833957e-05 0)
(0.770139244381 -3.77382389415e-05 0)
(0.770138914667 -3.85963410362e-05 0)
(0.77013852371 -3.94271317386e-05 0)
(0.770138080859 -4.02227899069e-05 0)
(0.770137603374 -4.09761989754e-05 0)
(0.770137118084 -4.16835083818e-05 0)
(0.770136664453 -4.23461410707e-05 0)
(0.770136300459 -4.29718008053e-05 0)
(0.770136112443 -4.35767057277e-05 0)
(0.770136232112 -4.41931906048e-05 0)
(0.770136866672 -4.48885068153e-05 0)
(0.770138352951 -4.58048733057e-05 0)
(0.770141238477 -4.72220107888e-05 0)
(0.770146340288 -4.96405838648e-05 0)
(0.770155063695 -5.41739553459e-05 0)
(0.770169451541 -6.27225342666e-05 0)
(0.770191227629 -7.64969145779e-05 0)
(0.770224424107 -9.75879880448e-05 0)
(0.770277111207 -0.000129028157669 0)
(0.770360387613 -0.000175535689476 0)
(0.770490866068 -0.000244827331543 0)
(0.770694780007 -0.000349142793951 0)
(0.771013952191 -0.000508073999642 0)
(0.771513971582 -0.000753737297091 0)
(0.772297115324 -0.00113804827988 0)
(0.773526382235 -0.00175357643204 0)
(0.775468877998 -0.00276100423934 0)
(0.778565176273 -0.0044484749869 0)
(0.783549708803 -0.00738833039284 0)
(0.79160624272 -0.0128116552084 0)
(0.804526165269 -0.0234617387289 0)
(0.825444773482 -0.045543905571 0)
(0.855580974549 -0.093704794373 0)
(0.867079126611 -0.191816748786 0)
(1.02266403329 0.169400614541 0)
(1.10306994652 0.269988724491 0)
(1.12340309638 0.253519574318 0)
(1.10519598343 0.200034678202 0)
(1.07477346405 0.143039301933 0)
(1.04481495008 0.0956624862927 0)
(1.02057600392 0.0608695131734 0)
(1.00310948911 0.0372095923651 0)
(0.991420502031 0.0219941909833 0)
(0.98398520442 0.0126314079353 0)
(0.979430500869 0.00707076679912 0)
(0.976720439672 0.0038615142765 0)
(0.975145363611 0.0020528644382 0)
(0.974248715809 0.00105502830057 0)
(0.973748765408 0.0005162013119 0)
(0.973476428048 0.000232578544731 0)
(0.973332465432 8.95239583916e-05 0)
(0.97325851719 2.31234344284e-05 0)
(0.973222366155 -6.75768759553e-06 0)
(0.973207602774 -1.66299080777e-05 0)
(0.973203732797 -1.71599612982e-05 0)
(0.973204586789 -1.38049237294e-05 0)
(0.973207259143 -9.2691077429e-06 0)
(0.97321034493 -4.79871352928e-06 0)
(0.973213203012 -8.80939487464e-07 0)
(0.973215546964 2.36950291605e-06 0)
(0.973217281726 4.85981425787e-06 0)
(0.973218554141 6.54920519417e-06 0)
(0.973219514313 7.78025076319e-06 0)
(0.973220282852 8.80982563355e-06 0)
(0.973220970619 9.6720752063e-06 0)
(0.973221543443 1.04501692924e-05 0)
(0.973222008173 1.11421818375e-05 0)
(0.973222393407 1.17652346366e-05 0)
(0.973222712479 1.23375305479e-05 0)
(0.973222972362 1.2875170371e-05 0)
(0.973223178117 1.33920785332e-05 0)
(0.973223334272 1.38996834696e-05 0)
(0.973223444829 1.4406703319e-05 0)
(0.973223511163 1.49224667147e-05 0)
(0.973223531915 1.54558490254e-05 0)
(0.97322350479 1.60120506074e-05 0)
(0.973223426374 1.65903033931e-05 0)
(0.973223291936 1.7187922434e-05 0)
(0.973223096595 1.78073028353e-05 0)
(0.973222838784 1.8461006055e-05 0)
(0.973222512149 1.91724413482e-05 0)
(0.973222112185 1.99250308395e-05 0)
(0.973221642903 2.0710048418e-05 0)
(0.973221111542 2.15267797166e-05 0)
(0.97322053418 2.23740577304e-05 0)
(0.973219939082 2.32444235463e-05 0)
(0.973219368917 2.41193709508e-05 0)
(0.973218885962 2.49659931218e-05 0)
(0.973218580819 2.57310781118e-05 0)
(0.973218583321 2.63265489805e-05 0)
(0.973219072962 2.66034911228e-05 0)
(0.973220301631 2.63269719935e-05 0)
(0.973222647843 2.51998341224e-05 0)
(0.973226466514 2.28753912799e-05 0)
(0.973232396487 1.80330510285e-05 0)
(0.973243411097 8.94529953093e-06 0)
(0.973263746047 -7.33087707501e-06 0)
(0.973297544873 -3.34935705219e-05 0)
(0.97335105381 -7.50180317232e-05 0)
(0.973434598627 -0.000141066115217 0)
(0.973564508518 -0.000245850487861 0)
(0.973766234764 -0.000411720177822 0)
(0.974079530624 -0.000674374560128 0)
(0.974566007887 -0.00109196128988 0)
(0.975320003846 -0.00175927972788 0)
(0.976489909439 -0.00283217628781 0)
(0.978309853643 -0.00457218702459 0)
(0.981139628524 -0.00743786230303 0)
(0.985516718849 -0.0122662053709 0)
(0.99215910399 -0.0206462115613 0)
(1.00178161063 -0.0356046059992 0)
(1.01485762916 -0.0627174319646 0)
(1.02868479458 -0.111820111706 0)
(1.02336291329 -0.19228549787 0)
(1.01296399323 0.11699334802 0)
(1.08914926865 0.223279516819 0)
(1.14076770892 0.236080762576 0)
(1.16170316682 0.203277405043 0)
(1.16359486949 0.155740067248 0)
(1.15644750931 0.110159599314 0)
(1.14678838406 0.0734018290478 0)
(1.1379712614 0.0466519731124 0)
(1.131139289 0.0285320883443 0)
(1.12631626632 0.0169053399136 0)
(1.12311389603 0.00975191251404 0)
(1.12107744234 0.00549283433498 0)
(1.11982252299 0.00302220260261 0)
(1.11906746289 0.00161966412987 0)
(1.11862184522 0.000838949216838 0)
(1.11836322919 0.000413163032071 0)
(1.11821542756 0.00018660452537 0)
(1.11813187159 6.97995081294e-05 0)
(1.11808633794 1.35177361975e-05 0)
(1.11806287648 -1.0487905833e-05 0)
(1.11805092779 -1.87576041963e-05 0)
(1.11804535748 -1.97885944425e-05 0)
(1.1180431434 -1.79181159513e-05 0)
(1.11804259753 -1.52592221899e-05 0)
(1.11804279958 -1.27683113052e-05 0)
(1.11804328802 -1.07685311735e-05 0)
(1.11804388386 -9.24285558422e-06 0)
(1.11804458248 -8.02230379912e-06 0)
(1.11804539285 -7.04145194761e-06 0)
(1.11804616208 -6.19489509255e-06 0)
(1.1180468216 -5.54645932421e-06 0)
(1.11804737836 -5.13891041322e-06 0)
(1.11804781678 -4.93278424544e-06 0)
(1.11804818378 -4.85189464814e-06 0)
(1.11804849438 -4.85264524251e-06 0)
(1.11804875327 -4.90677341579e-06 0)
(1.11804896384 -4.99401261808e-06 0)
(1.11804912824 -5.10206178433e-06 0)
(1.11804924716 -5.22385528627e-06 0)
(1.11804931948 -5.34417782234e-06 0)
(1.11804934306 -5.44944221567e-06 0)
(1.11804931621 -5.53167847414e-06 0)
(1.11804923642 -5.58978934951e-06 0)
(1.1180491013 -5.62560328181e-06 0)
(1.11804891355 -5.63954036407e-06 0)
(1.11804868475 -5.63583033153e-06 0)
(1.11804838608 -5.6358553949e-06 0)
(1.11804798778 -5.61575067231e-06 0)
(1.11804750227 -5.56078145275e-06 0)
(1.11804694107 -5.46732432431e-06 0)
(1.11804631715 -5.33397002978e-06 0)
(1.11804565254 -5.16415055206e-06 0)
(1.11804498104 -4.97164581195e-06 0)
(1.11804435194 -4.78433502284e-06 0)
(1.11804383667 -4.64966010418e-06 0)
(1.11804354139 -4.64656893647e-06 0)
(1.11804363961 -4.90627219314e-06 0)
(1.11804447642 -5.65939252587e-06 0)
(1.11804670315 -7.44766365611e-06 0)
(1.1180505895 -1.16190122092e-05 0)
(1.11805688138 -1.88339834076e-05 0)
(1.11806706521 -2.90175797592e-05 0)
(1.11808311607 -4.65758102654e-05 0)
(1.1181086097 -7.73812613286e-05 0)
(1.11814878242 -0.000129545871671 0)
(1.11821139931 -0.000215447878321 0)
(1.1183082001 -0.000354514353068 0)
(1.11845710117 -0.000577463299792 0)
(1.11868552643 -0.00093304144085 0)
(1.11903507437 -0.00149915641171 0)
(1.11956788017 -0.0024005299774 0)
(1.12037675955 -0.00383709371578 0)
(1.12159663741 -0.00613718147896 0)
(1.12341023278 -0.00984867823644 0)
(1.12603332418 -0.0158999765991 0)
(1.12961256326 -0.0258814076996 0)
(1.13390426511 -0.0424529733936 0)
(1.13777376701 -0.0697365848654 0)
(1.13730193781 -0.113346464452 0)
(1.11920534073 -0.175960797187 0)
(1.00448286372 0.0792421230247 0)
(1.06918693875 0.172028762259 0)
(1.13092360174 0.198418623571 0)
(1.17425320931 0.182642798339 0)
(1.19997171134 0.147740916218 0)
(1.21282557015 0.109334946031 0)
(1.21788593874 0.0756807735007 0)
(1.21898268769 0.049699619597 0)
(1.21842366068 0.0312834542322 0)
(1.2173924459 0.0190239365478 0)
(1.21640347191 0.0112437245895 0)
(1.21562367533 0.00648476045751 0)
(1.21506545137 0.00365629333492 0)
(1.21468772187 0.00201368198083 0)
(1.21444099295 0.00107863962436 0)
(1.21428343587 0.000556601038494 0)
(1.21418422974 0.000271410338246 0)
(1.21412229779 0.000119982981642 0)
(1.21408436082 4.33911015986e-05 0)
(1.21406151754 6.51574282744e-06 0)
(1.2140476331 -9.28018468529e-06 0)
(1.21403930801 -1.44214280532e-05 0)
(1.2140344502 -1.45630755316e-05 0)
(1.2140317154 -1.25997760101e-05 0)
(1.21403026521 -9.96264542491e-06 0)
(1.21402959402 -7.29706019921e-06 0)
(1.21402939569 -4.86625523927e-06 0)
(1.21402948516 -2.78138050273e-06 0)
(1.21402972755 -1.13660145832e-06 0)
(1.21403000213 2.99688396167e-08 0)
(1.21403022295 8.40727682811e-07 0)
(1.2140303954 1.3587575342e-06 0)
(1.2140305993 1.76226469089e-06 0)
(1.21403084881 2.10015321058e-06 0)
(1.2140311018 2.38677019595e-06 0)
(1.21403133355 2.63555727157e-06 0)
(1.21403153053 2.8566836987e-06 0)
(1.21403168365 3.06830933528e-06 0)
(1.21403179384 3.28832712223e-06 0)
(1.2140318624 3.52462268625e-06 0)
(1.21403188386 3.78750361282e-06 0)
(1.21403185468 4.0840459493e-06 0)
(1.21403177107 4.41465791015e-06 0)
(1.21403162609 4.7763842202e-06 0)
(1.21403140632 5.16648064261e-06 0)
(1.21403109001 5.5764202788e-06 0)
(1.21403069587 5.97790591354e-06 0)
(1.214030253 6.39125017604e-06 0)
(1.21402974863 6.8454637327e-06 0)
(1.21402917497 7.3493127545e-06 0)
(1.21402854067 7.8992216803e-06 0)
(1.21402786632 8.48330735639e-06 0)
(1.21402718342 9.07583840244e-06 0)
(1.21402653676 9.6299592453e-06 0)
(1.21402599042 1.00665701621e-05 0)
(1.21402563602 1.02536201442e-05 0)
(1.21402558252 9.97491505488e-06 0)
(1.2140258301 8.88755815432e-06 0)
(1.21402596654 6.42468214652e-06 0)
(1.21402637749 1.56722450547e-06 0)
(1.21402904748 -7.03608405682e-06 0)
(1.21403428973 -2.19691904352e-05 0)
(1.21404215999 -4.6751218186e-05 0)
(1.21405460158 -8.69230758276e-05 0)
(1.21407379324 -0.000151494668809 0)
(1.21410275654 -0.000254689016295 0)
(1.21414586482 -0.000418811378958 0)
(1.21420937626 -0.000678921724769 0)
(1.2143021316 -0.00109019712557 0)
(1.21443610525 -0.00173969969989 0)
(1.21462624848 -0.00276485915412 0)
(1.21488885074 -0.00438263454186 0)
(1.21523418274 -0.00693781152952 0)
(1.2156438468 -0.010979220362 0)
(1.21601400482 -0.0173785542802 0)
(1.21601292876 -0.02750335836 0)
(1.21476721777 -0.0433974918937 0)
(1.21043013267 -0.0677763714101 0)
(1.19916963567 -0.103495036193 0)
(1.1722420311 -0.150526163697 0)
(0.998918884278 0.0524339704673 0)
(1.05231155322 0.124759668157 0)
(1.11338475256 0.153340023861 0)
(1.16665573471 0.148446336159 0)
(1.20700537818 0.125218153829 0)
(1.23443142168 0.0960170414127 0)
(1.25161298395 0.0685153876303 0)
(1.26172829355 0.0462004120623 0)
(1.26738287927 0.0297696394536 0)
(1.27040049482 0.0184892030669 0)
(1.27194163032 0.0111420724463 0)
(1.27269281101 0.00654602187911 0)
(1.27303754469 0.00375952876215 0)
(1.27318089969 0.00211166549281 0)
(1.2732287923 0.00115731582838 0)
(1.2732342591 0.000615177754811 0)
(1.27322301364 0.000313407656147 0)
(1.27320704147 0.000149545617071 0)
(1.27319169362 6.35829094062e-05 0)
(1.27317887061 2.02946032655e-05 0)
(1.27316882157 7.6090803705e-08 0)
(1.27316128548 -8.04098614881e-06 0)
(1.27315584175 -1.01774829718e-05 0)
(1.27315205651 -9.60962933352e-06 0)
(1.27314948639 -8.03392839734e-06 0)
(1.27314778493 -6.28214818042e-06 0)
(1.27314669698 -4.73116859131e-06 0)
(1.27314604248 -3.51739663037e-06 0)
(1.27314569172 -2.65231045208e-06 0)
(1.2731455448 -2.06835423146e-06 0)
(1.27314554347 -1.65916148119e-06 0)
(1.2731457007 -1.31032976467e-06 0)
(1.273145968 -9.93930690662e-07 0)
(1.27314624473 -7.7994164261e-07 0)
(1.27314650168 -6.440215193e-07 0)
(1.27314672818 -5.52215758203e-07 0)
(1.27314692573 -4.74420203772e-07 0)
(1.27314709963 -3.94023997279e-07 0)
(1.27314723772 -2.95932070057e-07 0)
(1.27314732837 -1.74283641034e-07 0)
(1.27314736995 -2.01046914809e-08 0)
(1.27314736012 1.74964021809e-07 0)
(1.2731472952 4.16030475716e-07 0)
(1.27314717036 7.07594625583e-07 0)
(1.2731469787 1.05899149579e-06 0)
(1.27314670848 1.49092667393e-06 0)
(1.27314635751 2.03801354044e-06 0)
(1.27314594569 2.68921280889e-06 0)
(1.27314547649 3.41238116445e-06 0)
(1.27314493174 4.19271651471e-06 0)
(1.27314430513 5.02263482659e-06 0)
(1.27314360283 5.88401721981e-06 0)
(1.27314283511 6.73843835396e-06 0)
(1.27314201216 7.51863974489e-06 0)
(1.27314114245 8.11456206032e-06 0)
(1.2731402357 8.34838491996e-06 0)
(1.27313932122 7.93822538122e-06 0)
(1.2731384984 6.46592523567e-06 0)
(1.27313792296 3.47892673217e-06 0)
(1.27313730361 -1.08063370344e-06 0)
(1.27313619772 -8.3895076623e-06 0)
(1.27313444155 -2.26754113241e-05 0)
(1.27313191369 -4.69969473722e-05 0)
(1.2731280759 -8.69921198049e-05 0)
(1.27312161494 -0.00015188449827 0)
(1.2731102592 -0.000255878928943 0)
(1.27309000984 -0.000421070577936 0)
(1.27305395178 -0.000682031079399 0)
(1.27299027085 -0.00109277318003 0)
(1.27287864507 -0.00173759532346 0)
(1.27268377132 -0.00274771712991 0)
(1.27234394854 -0.00432652094711 0)
(1.27174986687 -0.00678792575721 0)
(1.27070461469 -0.0106118716404 0)
(1.26884976018 -0.0165196329463 0)
(1.26552616682 -0.0255610008545 0)
(1.25952933176 -0.0391577441631 0)
(1.2488346616 -0.0589483262148 0)
(1.23015456287 -0.0862204618069 0)
(1.19765082074 -0.120103751282 0)
(0.995674153127 0.033064262971 0)
(1.0404350827 0.0836565489278 0)
(1.09704732802 0.107467462325 0)
(1.15313024469 0.107871947745 0)
(1.20114267362 0.0938275708345 0)
(1.23782390754 0.0738701382833 0)
(1.26364998704 0.0539318150573 0)
(1.28077035336 0.0371036675356 0)
(1.29159186549 0.0243378891954 0)
(1.29817286261 0.0153598780667 0)
(1.30205154635 0.00939285206904 0)
(1.30427862443 0.0055946007345 0)
(1.30552775362 0.00325633651325 0)
(1.30621199714 0.00185440980548 0)
(1.30657667136 0.00103203807584 0)
(1.30676406701 0.0005589781162 0)
(1.30685521757 0.000292146167852 0)
(1.30689555436 0.000144973943239 0)
(1.30691017199 6.6088639188e-05 0)
(1.30691258341 2.5331012893e-05 0)
(1.30690981684 5.45931231295e-06 0)
(1.30690537657 -3.30379180948e-06 0)
(1.30690090151 -6.35677619421e-06 0)
(1.30689707397 -6.71612620997e-06 0)
(1.30689406359 -5.94942571626e-06 0)
(1.30689182983 -4.82918950716e-06 0)
(1.30689025721 -3.70447631747e-06 0)
(1.3068892259 -2.70655803681e-06 0)
(1.30688862044 -1.86232314186e-06 0)
(1.30688832403 -1.15805473025e-06 0)
(1.30688823377 -5.67436816397e-07 0)
(1.30688826263 -7.67564220004e-08 0)
(1.30688832565 2.82350046303e-07 0)
(1.30688842254 5.49608806452e-07 0)
(1.30688858235 7.43854101508e-07 0)
(1.30688877559 8.92182051535e-07 0)
(1.30688896997 1.02581790283e-06 0)
(1.3068891417 1.15564574323e-06 0)
(1.30688927978 1.28776380996e-06 0)
(1.3068893776 1.43650823471e-06 0)
(1.30688943227 1.61405847641e-06 0)
(1.30688944234 1.83012244297e-06 0)
(1.30688940644 2.09259677661e-06 0)
(1.30688932192 2.40886697091e-06 0)
(1.30688918495 2.78787926736e-06 0)
(1.30688899138 3.24194448912e-06 0)
(1.30688873713 3.78903930559e-06 0)
(1.30688840126 4.43587983083e-06 0)
(1.30688796892 5.16118271725e-06 0)
(1.30688744921 5.95482763756e-06 0)
(1.30688684564 6.81393317437e-06 0)
(1.30688615476 7.72742847925e-06 0)
(1.30688537037 8.66834729538e-06 0)
(1.30688448029 9.58623739806e-06 0)
(1.306883461 1.03956986823e-05 0)
(1.30688227175 1.09596980831e-05 0)
(1.30688084098 1.10608039188e-05 0)
(1.30687904917 1.03380096861e-05 0)
(1.30687678565 8.16387337208e-06 0)
(1.3068738688 3.64475572659e-06 0)
(1.30686893941 -3.73419229888e-06 0)
(1.30686082165 -1.60478469735e-05 0)
(1.30684851537 -3.75414794041e-05 0)
(1.30682907542 -7.27691245119e-05 0)
(1.30679787142 -0.000129612563337 0)
(1.30674768273 -0.000220353144886 0)
(1.30666667556 -0.000363951746279 0)
(1.30653571803 -0.00058986772188 0)
(1.30632412696 -0.000943691775346 0)
(1.30598259534 -0.00149577703939 0)
(1.30543178431 -0.00235412465444 0)
(1.30454403863 -0.0036831429695 0)
(1.30311376562 -0.00573032078303 0)
(1.30080962006 -0.0088614002172 0)
(1.29709921034 -0.0136013619092 0)
(1.2911317805 -0.0206680900135 0)
(1.28156948002 -0.0309544308409 0)
(1.26645005875 -0.0453604194246 0)
(1.24305832707 -0.0643730392928 0)
(1.20733391146 -0.0870832364205 0)
(0.993952393983 0.0182482367445 0)
(1.03317392688 0.0479096013019 0)
(1.08538405534 0.0632767149939 0)
(1.14128032067 0.0650164209037 0)
(1.19268568731 0.0577019195288 0)
(1.23449634556 0.0462309330717 0)
(1.26565090072 0.03427345905 0)
(1.28740332389 0.0238996749578 0)
(1.30182591161 0.0158662829696 0)
(1.31099645248 0.0101220244008 0)
(1.31663338455 0.00625086607941 0)
(1.32000333569 0.00375721835538 0)
(1.32197059147 0.00220605502732 0)
(1.3230940344 0.00126738751939 0)
(1.32372134516 0.000712058413354 0)
(1.32406270421 0.000389985577771 0)
(1.32424240958 0.000206781732582 0)
(1.32433266367 0.000104771152261 0)
(1.32437473267 4.94399706201e-05 0)
(1.32439176588 2.04281808484e-05 0)
(1.32439645446 5.96151325504e-06 0)
(1.32439558646 -6.93521224082e-07 0)
(1.32439263017 -3.25925733217e-06 0)
(1.3243892627 -3.83917259701e-06 0)
(1.32438623628 -3.5378606487e-06 0)
(1.32438380378 -2.91238979532e-06 0)
(1.32438198909 -2.22592604222e-06 0)
(1.32438072419 -1.5934727579e-06 0)
(1.32437990312 -1.06643549004e-06 0)
(1.32437940947 -6.60588834797e-07 0)
(1.32437914897 -3.68263134591e-07 0)
(1.32437906861 -1.66250425889e-07 0)
(1.32437913002 -1.17203811425e-08 0)
(1.3243792654 1.64843835864e-07 0)
(1.32437942724 3.49749804582e-07 0)
(1.32437960818 5.30434261005e-07 0)
(1.32437979299 7.02363189055e-07 0)
(1.32437996504 8.76081606499e-07 0)
(1.32438011296 1.06307004218e-06 0)
(1.32438022805 1.27467269435e-06 0)
(1.32438030519 1.52072873382e-06 0)
(1.32438034192 1.80942979559e-06 0)
(1.3243803367 2.14697420061e-06 0)
(1.32438028671 2.53831464807e-06 0)
(1.32438018685 2.98866821027e-06 0)
(1.32438003071 3.50354210912e-06 0)
(1.3243798131 4.08721008444e-06 0)
(1.32437952527 4.74155275935e-06 0)
(1.3243791582 5.4844411767e-06 0)
(1.32437870667 6.32258377661e-06 0)
(1.32437816194 7.2509218144e-06 0)
(1.32437751081 8.25769544412e-06 0)
(1.32437673232 9.32030449878e-06 0)
(1.32437578938 1.03959006188e-05 0)
(1.32437462037 1.14108868054e-05 0)
(1.32437313032 1.22474646049e-05 0)
(1.32437117393 1.27200036151e-05 0)
(1.32436852891 1.25423216279e-05 0)
(1.32436492898 1.12702379835e-05 0)
(1.32436016623 8.13569812031e-06 0)
(1.32435282214 2.12856886763e-06 0)
(1.32433974406 -6.89718149299e-06 0)
(1.32431881716 -2.09775236783e-05 0)
(1.32428655992 -4.51532028778e-05 0)
(1.32423540784 -8.57627250161e-05 0)
(1.32415410869 -0.000151140190349 0)
(1.32402474164 -0.000254108120977 0)
(1.32381881672 -0.000414961285486 0)
(1.32349139974 -0.000664924756083 0)
(1.32297165194 -0.0010515834712 0)
(1.32214823539 -0.0016468852686 0)
(1.3208470122 -0.00255839719829 0)
(1.31879733632 -0.00394434858166 0)
(1.31558224916 -0.00603173811732 0)
(1.31056807628 -0.00913388899961 0)
(1.30280981941 -0.0136572579298 0)
(1.29093929481 -0.0200707040082 0)
(1.27311534081 -0.0287873298315 0)
(1.24704535446 -0.0399245432486 0)
(1.20967932692 -0.0528399802036 0)
(0.993217617197 0.00583466613247 0)
(1.02977742636 0.0155837033854 0)
(1.07945208327 0.0208580348923 0)
(1.13468445197 0.0216782766941 0)
(1.18726115408 0.0194323209614 0)
(1.23128552715 0.0157058370835 0)
(1.26493271715 0.011733322618 0)
(1.28895853756 0.00823768022058 0)
(1.30520965818 0.00550196602356 0)
(1.31572988793 0.0035291762429 0)
(1.32230263678 0.0021902413653 0)
(1.32629148781 0.00132251138303 0)
(1.32865335428 0.000779883355148 0)
(1.3300212193 0.000449966202138 0)
(1.33079637819 0.000253932133843 0)
(1.33122536289 0.000139761616756 0)
(1.33145603334 7.45443098516e-05 0)
(1.33157537046 3.80708555989e-05 0)
(1.33163367358 1.81930113256e-05 0)
(1.33165952197 7.71259727471e-06 0)
(1.33166882793 2.44621214478e-06 0)
(1.33167026141 -4.78663152901e-09 0)
(1.33166836122 -9.78124550668e-07 0)
(1.33166539784 -1.22334060019e-06 0)
(1.3316624592 -1.13833199868e-06 0)
(1.33165997682 -9.2717753418e-07 0)
(1.33165806302 -6.86545628885e-07 0)
(1.33165668939 -4.59242815099e-07 0)
(1.33165577021 -2.63252339236e-07 0)
(1.33165520373 -9.72446303943e-08 0)
(1.33165489883 5.29083772e-08 0)
(1.33165478634 1.98948146104e-07 0)
(1.33165481265 3.33796337293e-07 0)
(1.33165492784 4.48466769877e-07 0)
(1.33165509084 5.6427511557e-07 0)
(1.33165527557 6.88378924861e-07 0)
(1.3316554658 8.2216648449e-07 0)
(1.33165564943 9.71876504691e-07 0)
(1.33165581502 1.14414186294e-06 0)
(1.33165595354 1.34624806725e-06 0)
(1.33165605955 1.58592988805e-06 0)
(1.33165613061 1.87076184934e-06 0)
(1.33165616536 2.20756119328e-06 0)
(1.33165616128 2.60281054004e-06 0)
(1.33165611364 3.06379629775e-06 0)
(1.33165601641 3.59902942688e-06 0)
(1.33165586384 4.21744056209e-06 0)
(1.3316556479 4.92567957009e-06 0)
(1.33165535836 5.73206673829e-06 0)
(1.33165498493 6.64037147096e-06 0)
(1.33165451504 7.65123511906e-06 0)
(1.33165393075 8.76284030864e-06 0)
(1.33165320128 9.96627301577e-06 0)
(1.33165227326 1.12401086561e-05 0)
(1.33165106161 1.25469485165e-05 0)
(1.33164943539 1.38251156973e-05 0)
(1.33164719033 1.49711884618e-05 0)
(1.33164400209 1.58172464042e-05 0)
(1.33163937402 1.60916480039e-05 0)
(1.33163266537 1.52612829069e-05 0)
(1.33162298769 1.22145548327e-05 0)
(1.33160832943 6.37471663298e-06 0)
(1.33158375692 -2.30146389988e-06 0)
(1.33154284046 -1.5922563685e-05 0)
(1.33147824172 -3.6573322741e-05 0)
(1.33137743711 -6.85221638672e-05 0)
(1.33121885009 -0.000118358824976 0)
(1.33096836344 -0.000195073166758 0)
(1.33057306251 -0.000311726599868 0)
(1.3299504674 -0.000487538412693 0)
(1.32897239875 -0.00075055437855 0)
(1.32744104618 -0.00114110872837 0)
(1.325054027 -0.00171599208804 0)
(1.3213551011 -0.00255254278015 0)
(1.3156685431 -0.00375070628502 0)
(1.30701844963 -0.00542902793602 0)
(1.29404601543 -0.00770566189643 0)
(1.27499651213 -0.0106512782793 0)
(1.24779298885 -0.0142193484571 0)
(1.20984571003 -0.018124056867 0)
(0.993218414153 -0.00583309186446 0)
(1.02977740588 -0.0155823479335 0)
(1.07945200601 -0.0208575887716 0)
(1.13468445763 -0.0216782878752 0)
(1.18726118101 -0.0194325098312 0)
(1.23128557142 -0.0157060142667 0)
(1.26493277852 -0.011733368866 0)