/*--------------------------------*- C++ -*----------------------------------*\
| =========                 |                                                 |
| \\      /  F ield         | OpenFOAM: The Open Source CFD Toolbox           |
|  \\    /   O peration     | Version:  2106                                  |
|   \\  /    A nd           | Website:  www.openfoam.com                      |
|    \\/     M anipulation  |                                                 |
\*---------------------------------------------------------------------------*/
FoamFile
{
    version     2.0;
    format      ascii;
    arch        "LSB;label=32;scalar=64";
    class       surfaceScalarField;
    location    "0.07";
    object      phi;
}
// * * * * * * * * * * * * * * * * * * * * * * * * * * * * * * * * * * * * * //

dimensions      [0 3 -1 0 0 0 0];

oriented        oriented;

internalField   nonuniform List<scalar> 
18840
(
3.37542946659e-05
1.62457053346e-05
2.25359325907e-05
1.12183621706e-05
1.63023240431e-05
6.23360869269e-06
1.28097543929e-05
3.4925698052e-06
1.08065153101e-05
2.00323914824e-06
9.60475627555e-06
1.20175917659e-06
8.85179339454e-06
7.52963002713e-07
8.36538407233e-06
4.8640942082e-07
8.04592499566e-06
3.19459196391e-07
7.83504539798e-06
2.10879694156e-07
7.6963519928e-06
1.3869350566e-07
7.60612802105e-06
9.02240630571e-08
7.54849455855e-06
5.76335486944e-08
7.51266667661e-06
3.58279654929e-08
7.49127764487e-06
2.1389108082e-08
7.47929729827e-06
1.19804138007e-08
7.47330758338e-06
5.98977567843e-09
7.47100659445e-06
2.30104778868e-09
7.47085588422e-06
1.50769752522e-10
7.47187181544e-06
-1.01587615682e-09
7.47340883381e-06
-1.53696384887e-09
7.47508381265e-06
-1.67493618071e-09
7.47667617846e-06
-1.59233809441e-09
7.4780739972e-06
-1.39780195807e-09
7.479234529e-06
-1.16052355335e-09
7.48015669763e-06
-9.22166644125e-10
7.48086242516e-06
-7.05733816441e-10
7.48138427985e-06
-5.21870742167e-10
7.48175763783e-06
-3.73377009881e-10
7.48201602555e-06
-2.58409135934e-10
7.48218870818e-06
-1.72703744763e-10
7.48229974846e-06
-1.11062633982e-10
7.48236800146e-06
-6.82789843402e-11
7.48240763277e-06
-3.96614209718e-11
7.48242887941e-06
-2.12763166294e-11
7.48243887913e-06
-1.00197999794e-11
7.48244252181e-06
-3.653555616e-12
7.48244285788e-06
-3.21536186602e-13
7.48244143274e-06
1.44108014101e-12
7.48243938589e-06
2.0803660179e-12
7.48243748222e-06
1.94678417445e-12
7.48243590142e-06
1.62528006936e-12
7.4824346844e-06
1.27781008203e-12
7.48243382597e-06
9.17461138312e-13
7.48243328404e-06
6.01155451352e-13
7.48243300187e-06
3.47181714717e-13
7.48243291451e-06
1.48512560643e-13
7.48243297558e-06
-4.14568710843e-15
7.48243314723e-06
-1.07665371362e-13
7.48243340961e-06
-1.96448004756e-13
7.48243373954e-06
-2.60170142194e-13
7.48243412824e-06
-3.13018432203e-13
7.48243454614e-06
-3.62002893738e-13
7.4824349925e-06
-4.00470732329e-13
7.48243546356e-06
-4.41666218299e-13
7.48243595454e-06
-4.76987359933e-13
7.4824364631e-06
-5.08220499429e-13
7.48243699291e-06
-5.38432465114e-13
7.48243755167e-06
-5.67203362665e-13
7.48243814133e-06
-5.95814296904e-13
7.48243876306e-06
-6.25272255477e-13
7.48243941692e-06
-6.54532961552e-13
7.48244010286e-06
-6.83417570728e-13
7.48244082188e-06
-7.13200829008e-13
7.48244157599e-06
-7.44799103347e-13
7.48244236787e-06
-7.77750723075e-13
7.48244319659e-06
-8.10862041579e-13
7.48244405936e-06
-8.43407491725e-13
7.4824449551e-06
-8.76780936681e-13
7.48244588002e-06
-9.11530537434e-13
7.48244683525e-06
-9.48506387123e-13
7.48244782181e-06
-9.86908042244e-13
7.4824488408e-06
-1.02496743301e-12
7.4824498923e-06
-1.06387217572e-12
7.48245097981e-06
-1.10363732671e-12
7.48245210509e-06
-1.14344172512e-12
7.48245326996e-06
-1.18230100343e-12
7.48245447646e-06
-1.22012763626e-12
7.48245572547e-06
-1.25852714033e-12
7.4824570153e-06
-1.29997016015e-12
7.4824583424e-06
-1.34609168314e-12
7.48245970451e-06
-1.39690168914e-12
7.48246110431e-06
-1.45081603231e-12
7.48246255053e-06
-1.50436184174e-12
7.48246405384e-06
-1.55249593125e-12
7.48246561964e-06
-1.59158005905e-12
7.48246724381e-06
-1.62391899206e-12
7.48246891573e-06
-1.65898684739e-12
7.48247062659e-06
-1.70812412436e-12
7.48247237645e-06
-1.7761589312e-12
7.48247417517e-06
-1.85767273688e-12
7.48247603709e-06
-1.94154359202e-12
7.48247797399e-06
-2.01967128634e-12
7.48247999208e-06
-2.0931532437e-12
7.48248209548e-06
-2.1721608232e-12
7.48248429261e-06
-2.27049361026e-12
7.48248660044e-06
-2.39769598108e-12
7.48248904554e-06
-2.5521999241e-12
7.48249166851e-06
-2.72785673122e-12
7.48249454772e-06
-2.95373903681e-12
7.48249770757e-06
-3.21923142831e-12
7.48250119887e-06
-3.55011909978e-12
7.48250507681e-06
-3.97114434686e-12
7.4825094374e-06
-4.49096246211e-12
7.48251441898e-06
-5.11530713257e-12
7.48252017592e-06
-5.86592531607e-12
7.48252687751e-06
-6.78145452356e-12
7.48253472825e-06
-7.91256632642e-12
7.48254399884e-06
-9.32771320591e-12
7.48255505828e-06
-1.11172140665e-11
7.48256832552e-06
-1.33326152506e-11
7.48258435008e-06
-1.60869360258e-11
7.48260379244e-06
-1.95106082475e-11
7.48262748099e-06
-2.37513812327e-11
7.48265644064e-06
-2.90086509055e-11
7.48269193404e-06
-3.55354768221e-11
7.48273552745e-06
-4.36399860409e-11
7.4827891713e-06
-5.36961644243e-11
7.48285528381e-06
-6.61641427536e-11
7.48293685164e-06
-8.16154320791e-11
7.48303757742e-06
-1.00771975719e-10
7.48316212998e-06
-1.24601397339e-10
7.48331674978e-06
-1.54676415499e-10
7.48351133445e-06
-1.9464645822e-10
7.48375035422e-06
-2.39095246333e-10
7.48404445059e-06
-2.94174786544e-10
7.48440848202e-06
-3.64093035826e-10
7.48485966711e-06
-4.51230389294e-10
7.48541900775e-06
-5.59337034879e-10
7.48611243913e-06
-6.93368452301e-10
7.48697211066e-06
-8.59574249363e-10
7.48803794981e-06
-1.06573260587e-09
7.48935955199e-06
-1.32150250217e-09
7.49099852371e-06
-1.63889644651e-09
7.49303144686e-06
-2.0328710532e-09
7.49555356534e-06
-2.52206518918e-09
7.49868336805e-06
-3.12975266899e-09
7.50256842425e-06
-3.88504868832e-09
7.50739281231e-06
-4.82441501445e-09
7.51338644112e-06
-5.9936273454e-09
7.52083687918e-06
-7.45039925659e-09
7.53010468302e-06
-9.26778131387e-09
7.54164328793e-06
-1.15386086905e-08
7.55602483204e-06
-1.43815673986e-08
7.57397423649e-06
-1.79495068796e-08
7.59641489997e-06
-2.24408562373e-08
7.62453059518e-06
-2.81158553836e-08
7.65985078317e-06
-3.53202401565e-08
7.70437106278e-06
-4.45202976144e-08
7.76072786617e-06
-5.63568882212e-08
7.83246238386e-06
-7.17348005979e-08
7.92444826461e-06
-9.19865518519e-08
8.04366756334e-06
-1.1922030641e-07
8.20086765408e-06
-1.57200738329e-07
8.41477009209e-06
-2.13901618278e-07
8.7240203874e-06
-3.09247941614e-07
9.22295964049e-06
-4.9893763693e-07
1.01765071964e-05
-9.53549898634e-07
1.24120354049e-05
-2.23553438782e-06
-6.15804717325e-06
1.85700820607e-05
5.01388670607e-05
1.61068384596e-05
4.41590874287e-05
1.71981419976e-05
3.7759814765e-05
1.26328815236e-05
3.26494787239e-05
8.60290614951e-06
2.89466530972e-05
5.70606497749e-06
2.63679230097e-05
3.78048952664e-06
2.45946681803e-05
2.52621812539e-06
2.33799390724e-05
1.70113879903e-06
2.2549997453e-05
1.14940112881e-06
2.1985407397e-05
7.75470066551e-07
2.1604122509e-05
5.19978730901e-07
2.13494318699e-05
3.44915045122e-07
2.11818875987e-05
2.25178154932e-07
2.10739505436e-05
1.43765340744e-07
2.10063888092e-05
8.89511462048e-08
2.09658079839e-05
5.25615204355e-08
2.09429297842e-05
2.88682262734e-08
2.09313789299e-05
1.38521232242e-08
2.09268326217e-05
4.6972635695e-09
2.09263763556e-05
-5.59454676995e-10
2.09281290357e-05
-3.28952637737e-09
2.09308801536e-05
-4.42596923342e-09
2.09338959744e-05
-4.60810558354e-09
2.09367600387e-05
-4.26184045014e-09
2.09392640204e-05
-3.66450140863e-09
2.09413309263e-05
-2.98908708724e-09
2.09429619872e-05
-2.33682059179e-09
2.09442006863e-05
-1.76060630117e-09
2.09451091934e-05
-1.28192237358e-09
2.09457536586e-05
-9.02914280851e-10
2.0946195781e-05
-6.14868655174e-10
2.09464886352e-05
-4.03963589114e-10
2.09466752718e-05
-2.54967509404e-10
2.09467889867e-05
-1.53432441109e-10
2.09468544759e-05
-8.68217049365e-11
2.0946889323e-05
-4.49213573313e-11
2.09469054372e-05
-1.97878334457e-11
2.09469105503e-05
-5.43310573033e-12
2.09469101469e-05
1.88658389559e-12
2.09469077133e-05
4.57435780751e-12
2.09469044272e-05
5.27725490123e-12
2.09469012111e-05
4.88857240163e-12
2.09468984925e-05
4.0365348832e-12
2.09468963726e-05
3.07633941665e-12
2.09468948271e-05
2.19599759018e-12
2.09468937526e-05
1.47527524032e-12
2.09468930116e-05
9.370852324e-13
2.09468926216e-05
4.7092367384e-13
2.0946892497e-05
1.02644810418e-13
2.09468925705e-05
-1.59424027211e-13
2.09468927499e-05
-3.54639156657e-13
2.09468930171e-05
-4.91305517745e-13
2.09468933281e-05
-5.99058633626e-13
2.09468936638e-05
-6.78351830788e-13
2.09468940338e-05
-7.35479758722e-13
2.0946894418e-05
-7.90267416889e-13
2.09468948144e-05
-8.44586445964e-13
2.09468952278e-05
-8.97256221126e-13
2.09468956624e-05
-9.45809096228e-13
2.09468961208e-05
-9.9131373757e-13
2.09468966053e-05
-1.03382138402e-12
2.09468971161e-05
-1.07698042353e-12
2.09468976523e-05
-1.12430662675e-12
2.09468982147e-05
-1.17831261567e-12
2.09468988033e-05
-1.2401620589e-12
2.09468994184e-05
-1.30792640415e-12
2.09469000592e-05
-1.37933668647e-12
2.09469007245e-05
-1.45238248138e-12
2.09469014177e-05
-1.52292243441e-12
2.09469021364e-05
-1.59443101815e-12
2.09469028844e-05
-1.66313163591e-12
2.09469036619e-05
-1.72880531908e-12
2.09469044671e-05
-1.79568197996e-12
2.09469052998e-05
-1.86696206059e-12
2.09469061605e-05
-1.94441228517e-12
2.09469070491e-05
-2.02937133848e-12
2.09469079697e-05
-2.11965460264e-12
2.09469089295e-05
-2.21149370195e-12
2.09469099332e-05
-2.30271273906e-12
2.09469109803e-05
-2.39421386675e-12
2.0946912066e-05
-2.48867626345e-12
2.09469131861e-05
-2.58864421421e-12
2.09469143425e-05
-2.69487295248e-12
2.09469155462e-05
-2.8050949466e-12
2.09469168135e-05
-2.91498527962e-12
2.09469181566e-05
-3.02179982832e-12
2.09469195776e-05
-3.12792920704e-12
2.09469210708e-05
-3.24069446491e-12
2.09469226317e-05
-3.36802812641e-12
2.09469242672e-05
-3.51436701036e-12
2.09469259984e-05
-3.68108415752e-12
2.09469278542e-05
-3.87085009087e-12
2.0946929862e-05
-4.09056623949e-12
2.09469320448e-05
-4.35010957417e-12
2.09469344259e-05
-4.66070246382e-12
2.094693704e-05
-5.0365173595e-12
2.09469399462e-05
-5.49395019824e-12
2.09469432378e-05
-6.0446439633e-12
2.09469470276e-05
-6.696392509e-12
2.09469514073e-05
-7.48300001992e-12
2.09469564724e-05
-8.45609148855e-12
2.09469623909e-05
-9.6343950917e-12
2.09469693396e-05
-1.10941438399e-11
2.09469775745e-05
-1.29009718052e-11
2.09469874175e-05
-1.51191912996e-11
2.09469992457e-05
-1.78312851008e-11
2.09470134898e-05
-2.11408951089e-11
2.09470306379e-05
-2.51567434451e-11
2.09470511803e-05
-2.99412854244e-11
2.09470754309e-05
-3.54146749721e-11
2.09471062878e-05
-4.42073290827e-11
2.09471444789e-05
-5.43017514066e-11
2.09471915986e-05
-6.66536611408e-11
2.09472497408e-05
-8.19175947791e-11
2.09473215303e-05
-1.00833519351e-10
2.09474102379e-05
-1.24296127465e-10
2.09475199257e-05
-1.53395960524e-10
2.09476556269e-05
-1.89472865527e-10
2.09478235701e-05
-2.34183866961e-10
2.09480314552e-05
-2.89578969557e-10
2.09482887774e-05
-3.5818442478e-10
2.09486071907e-05
-4.4313129879e-10
2.09490007586e-05
-5.48388770499e-10
2.09494850944e-05
-6.79173721636e-10
2.09500880294e-05
-8.42195785038e-10
2.09508387991e-05
-1.04496997462e-09
2.09517713703e-05
-1.29664046589e-09
2.09529288493e-05
-1.60865926204e-09
2.09543650466e-05
-1.99542762662e-09
2.09561467988e-05
-2.47497509814e-09
2.09583570836e-05
-3.06971895422e-09
2.09610989376e-05
-3.80747658743e-09
2.09645003241e-05
-4.72281943097e-09
2.0968720234e-05
-5.8587619884e-09
2.09739562892e-05
-7.26886403463e-09
2.09804542196e-05
-9.01991728151e-09
2.09885198222e-05
-1.11953281928e-08
2.09985340993e-05
-1.38993565902e-08
2.10109722946e-05
-1.72626007899e-08
2.10264279369e-05
-2.14491787438e-08
2.10456436037e-05
-2.66659832166e-08
2.10695505203e-05
-3.31747048024e-08
2.10993197045e-05
-4.1307914748e-08
2.11364287308e-05
-5.14908503457e-08
2.11827500334e-05
-6.42711153951e-08
2.12406691114e-05
-8.03600898272e-08
2.13132454938e-05
-1.00692192175e-07
2.14044370802e-05
-1.26511724865e-07
2.15194213449e-05
-1.59504509925e-07
2.16650714051e-05
-2.02007002909e-07
2.18506951243e-05
-2.57358836114e-07
2.20892519569e-05
-3.30544128626e-07
2.23994946852e-05
-4.29464056778e-07
2.28099978593e-05
-5.67704489086e-07
2.33671630777e-05
-7.71066014662e-07
2.41515863767e-05
-1.09366885415e-06
2.53097776323e-05
-1.65712519408e-06
2.71007499876e-05
-2.74451646754e-06
2.98935000873e-05
-5.02827639633e-06
-9.94091031676e-06
3.36763560104e-05
5.35844163779e-05
1.25224222302e-05
5.29165774034e-05
1.7865981198e-05
4.96392906521e-05
1.59101683688e-05
4.58382869641e-05
1.24039100864e-05
4.24431519978e-05
9.10120010171e-06
3.97338468761e-05
6.48979481017e-06
3.76926364547e-05
4.56742873494e-06
3.62036540868e-05
3.19012131479e-06
3.51396664008e-05
2.21338896677e-06
3.43910754279e-05
1.52406118595e-06
3.38716749553e-05
1.0393793459e-06
3.35164496558e-05
7.00140478459e-07
3.32774426939e-05
4.64185245123e-07
3.31197671196e-05
3.01441032945e-07
3.30183085196e-05
1.90409854785e-07
3.29551559323e-05
1.15714215074e-07
3.29176555724e-05
6.63686991623e-08
3.28969597209e-05
3.45480864226e-08
3.28869560427e-05
1.47010491688e-08
3.28834829561e-05
2.91372034193e-09
3.28837593682e-05
-3.56586685732e-09
3.28859791574e-05
-6.64570550136e-09
3.28890034183e-05
-7.63232832898e-09
3.28921530441e-05
-7.41144408118e-09
3.28950558974e-05
-6.56734359719e-09
3.28975385335e-05
-5.47172297479e-09
3.28995504251e-05
-4.34871692628e-09
3.29011118574e-05
-3.32204770184e-09
3.29022790931e-05
-2.44917003375e-09
3.29031220218e-05
-1.74586001828e-09
3.29037107107e-05
-1.20358167428e-09
3.29041081107e-05
-8.0139596834e-10
3.29043668572e-05
-5.13752837667e-10
3.29045286306e-05
-3.15241553837e-10
3.29046249667e-05
-1.83178806176e-10
3.29046787766e-05
-9.87333554491e-11
3.29047061301e-05
-4.71323072848e-11
3.29047180666e-05
-1.7343329373e-11
3.29047210517e-05
-1.0565897511e-12
3.29047198083e-05
5.87217754718e-12
3.29047168005e-05
8.35512130822e-12
3.29047133926e-05
8.3676876697e-12
3.29047102701e-05
7.23006520525e-12
3.29047077152e-05
5.70943616119e-12
3.29047057869e-05
4.20776873452e-12
3.29047044445e-05
2.90406774051e-12
3.29047036243e-05
1.86389036721e-12
3.29047031245e-05
1.07751513903e-12
3.29047027876e-05
5.3979959324e-13
3.29047026303e-05
7.11190787133e-14
3.29047026307e-05
-2.64673225142e-13
3.29047027309e-05
-5.05482386308e-13
3.2904702911e-05
-6.84672329432e-13
3.29047031375e-05
-8.46018745472e-13
3.29047033956e-05
-9.66963530597e-13
3.29047036704e-05
-1.05793746647e-12
3.29047039541e-05
-1.13480721249e-12
3.29047042494e-05
-1.20179754118e-12
3.29047045576e-05
-1.26148797866e-12
3.29047048798e-05
-1.31623688945e-12
3.29047052173e-05
-1.36816561947e-12
3.29047055718e-05
-1.42093386891e-12
3.29047059458e-05
-1.48005829051e-12
3.29047063392e-05
-1.54934122779e-12
3.29047067516e-05
-1.62901208685e-12
3.29047071813e-05
-1.71280912202e-12
3.29047076238e-05
-1.7943244824e-12
3.29047080858e-05
-1.8756406419e-12
3.29047085622e-05
-1.9558962702e-12
3.29047090538e-05
-2.03451667637e-12
3.29047095654e-05
-2.11777790204e-12
3.29047101001e-05
-2.20834555153e-12
3.2904710657e-05
-2.30844983403e-12
3.29047112343e-05
-2.41934744787e-12
3.29047118292e-05
-2.53846535578e-12
3.29047124416e-05
-2.66083810248e-12
3.29047130771e-05
-2.78105714991e-12
3.29047137436e-05
-2.897673944e-12
3.29047144468e-05
-3.01522998881e-12
3.29047151864e-05
-3.14138166602e-12
3.29047159582e-05
-3.28214242014e-12
3.29047167594e-05
-3.43849139385e-12
3.29047175943e-05
-3.60542321401e-12
3.29047184747e-05
-3.77387138624e-12
3.29047194153e-05
-3.93556897482e-12
3.29047204273e-05
-4.08884984954e-12
3.29047215152e-05
-4.24205463054e-12
3.29047226795e-05
-4.41177988956e-12
3.29047239238e-05
-4.61613516612e-12
3.29047252618e-05
-4.86781686955e-12
3.29047267188e-05
-5.1723029274e-12
3.29047283272e-05
-5.53298919283e-12
3.29047301211e-05
-5.95837144135e-12
3.29047321355e-05
-6.46449319877e-12
3.29047344087e-05
-7.07165883781e-12
3.29047369893e-05
-7.79826512327e-12
3.29047399438e-05
-8.65337965759e-12
3.2904743347e-05
-9.62869154312e-12
3.29047472005e-05
-1.06879520609e-11
3.29047519628e-05
-1.23755635285e-11
3.29047577549e-05
-1.43434273121e-11
3.29047647527e-05
-1.6748629923e-11
3.29047732269e-05
-1.97177003016e-11
3.29047835415e-05
-2.33688612839e-11
3.29047961511e-05
-2.78565123989e-11
3.29048116119e-05
-3.33892965657e-11
3.29048306205e-05
-4.02315453235e-11
3.29048540849e-05
-4.87041724893e-11
3.2904883258e-05
-5.9206906499e-11
3.29049200198e-05
-7.22534831194e-11
3.29049642275e-05
-8.85010295684e-11
3.29050184961e-05
-1.08658409903e-10
3.29050853985e-05
-1.33638731496e-10
3.29051680011e-05
-1.64602511239e-10
3.29052700716e-05
-2.02994072867e-10
3.29053962727e-05
-2.50590108523e-10
3.29055523821e-05
-3.09582657686e-10
3.29057455565e-05
-3.82699654843e-10
3.2905984662e-05
-4.73335218682e-10
3.29062807023e-05
-5.85688345081e-10
3.29066473417e-05
-7.24930645305e-10
3.29071015592e-05
-8.97489541613e-10
3.29076645022e-05
-1.11145497282e-09
3.29083623003e-05
-1.37708973172e-09
3.29092268471e-05
-1.70686158865e-09
3.29102981965e-05
-2.11642991986e-09
3.29116263351e-05
-2.62482900297e-09
3.2913273207e-05
-3.25549008804e-09
3.29153155488e-05
-4.0376639044e-09
3.29178485157e-05
-5.00780336163e-09
3.29209901794e-05
-6.21122101365e-09
3.29248871056e-05
-7.7042468547e-09
3.29297213246e-05
-9.55692928149e-09
3.29357190178e-05
-1.18563870367e-08
3.29431612969e-05
-1.4711086476e-08
3.29523976872e-05
-1.825627948e-08
3.29638631314e-05
-2.26607870249e-08
3.29780993629e-05
-2.81355808876e-08
3.29957817369e-05
-3.49448932859e-08
3.30177532202e-05
-4.34205551468e-08
3.30450677603e-05
-5.39804404219e-08
3.30790457258e-05
-6.71526141657e-08
3.31213452525e-05
-8.3607476726e-08
3.31740551022e-05
-1.04200886422e-07
3.32398166654e-05
-1.30032906822e-07
3.33219860644e-05
-1.62529620546e-07
3.34248532712e-05
-2.03559462e-07
3.35539443814e-05
-2.55602927165e-07
3.37164483997e-05
-3.22008748848e-07
3.39218376284e-05
-4.0739672357e-07
3.41828008351e-05
-5.18322848329e-07
3.45167004384e-05
-6.64444519059e-07
3.49479177824e-05
-8.60681455388e-07
3.55116784316e-05
-1.13146421308e-06
3.62600842682e-05
-1.51947127102e-06
3.72703823361e-05
-2.10396889449e-06
3.86511803278e-05
-3.03792803043e-06
4.05227690074e-05
-4.61611259982e-06
4.28778551464e-05
-7.38335764219e-06
-1.21717678844e-05
4.5108710887e-05
5.35705172501e-05
8.95190506678e-06
5.55863075498e-05
1.585019119e-05
5.52411000904e-05
1.62553759208e-05
5.35977738038e-05
1.40472366161e-05
5.15433158618e-05
1.11556582536e-05
4.95828103638e-05
8.45030050149e-06
4.79278740194e-05
6.22236532535e-06
4.66227996704e-05
4.49519590813e-06
4.56366037671e-05
3.19958511218e-06
4.49132159502e-05
2.2474492576e-06
4.43947272334e-05
1.55786832949e-06
4.40304868285e-05
1.06438114172e-06
4.37795185891e-05
7.15153727376e-07
4.36101127074e-05
4.7084714545e-07
4.34984251688e-05
3.02097612908e-07
4.34268945104e-05
1.8724508126e-07
4.33827993339e-05
1.10464070429e-07
4.33570590137e-05
6.0288579921e-08
4.33432843536e-05
2.84758573962e-08
4.33370517113e-05
9.14648383347e-09
4.33353462989e-05
-1.86036381163e-09
4.33361750095e-05
-7.47435897587e-09
4.33382438465e-05
-9.70113081807e-09
4.33407543112e-05
-9.92188941454e-09
4.33432427788e-05
-9.05580184651e-09
4.33454670802e-05
-7.69602385153e-09
4.3347326101e-05
-6.20774166326e-09
4.33488036845e-05
-4.7996370761e-09
4.33499304745e-05
-3.57597043273e-09
4.33507588608e-05
-2.57426189312e-09
4.33513473473e-05
-1.79209094559e-09
4.33517515518e-05
-1.20563351731e-09
4.3352019702e-05
-7.81944161537e-10
4.33521910234e-05
-4.86602336107e-10
4.33522958504e-05
-2.88035847387e-10
4.33523566619e-05
-1.59557592351e-10
4.33523894639e-05
-7.99331375762e-11
4.33524052026e-05
-3.30576547119e-11
4.33524116062e-05
-7.4235062592e-12
4.33524124269e-05
5.09286031258e-12
4.33524107108e-05
1.01121033277e-11
4.33524081208e-05
1.09943389919e-11
4.33524054885e-05
9.90332507411e-12
4.33524031955e-05
8.0592512948e-12
4.33524013613e-05
6.10923118594e-12
4.33523999793e-05
4.37916629741e-12
4.33523989882e-05
2.9706686811e-12
4.33523983253e-05
1.86951489896e-12
4.33523979712e-05
1.00012036785e-12
4.33523978813e-05
2.6889693189e-13
4.335239787e-05
-1.54233949755e-13
4.3352397911e-05
-4.59035361158e-13
4.33523979609e-05
-6.6432493934e-13
4.33523980337e-05
-8.19314061378e-13
4.33523981118e-05
-9.52734939905e-13
4.33523981973e-05
-1.06750687555e-12
4.33523982871e-05
-1.16681072728e-12
4.3352398381e-05
-1.25252272104e-12
4.33523984773e-05
-1.32728149649e-12
4.33523985783e-05
-1.39412341253e-12
4.33523986846e-05
-1.45519001411e-12
4.33523987973e-05
-1.51307855823e-12
4.33523989166e-05
-1.57388674076e-12
4.33523990416e-05
-1.64325781136e-12
4.33523991714e-05
-1.72362502258e-12
4.33523993033e-05
-1.81119554269e-12
4.3352399447e-05
-1.89985163562e-12
4.33523995949e-05
-1.98895626407e-12
4.33523997454e-05
-2.08231041383e-12
4.33523999021e-05
-2.18157682098e-12
4.33524000654e-05
-2.2837221763e-12
4.33524002308e-05
-2.38817153953e-12
4.33524003981e-05
-2.49481994323e-12
4.33524005685e-05
-2.60333654281e-12
4.33524007415e-05
-2.71724968061e-12
4.33524009192e-05
-2.84049474636e-12
4.33524011084e-05
-2.97502488686e-12
4.33524013162e-05
-3.12022127563e-12
4.33524015464e-05
-3.27310846981e-12
4.33524017971e-05
-3.43006750995e-12
4.33524020654e-05
-3.58950193162e-12
4.33524023517e-05
-3.75318194817e-12
4.33524026641e-05
-3.92529670433e-12
4.33524030167e-05
-4.11044473615e-12
4.33524034244e-05
-4.31214977186e-12
4.33524038987e-05
-4.53358953952e-12
4.3352404445e-05
-4.78017309412e-12
4.33524050664e-05
-5.06108179737e-12
4.33524057713e-05
-5.38803488465e-12
4.33524065799e-05
-5.7730830123e-12
4.33524075248e-05
-6.22797303862e-12
4.33524086435e-05
-6.76573300775e-12
4.33524099757e-05
-7.40387501854e-12
4.33524115651e-05
-8.16751070994e-12
4.33524134672e-05
-9.09065611179e-12
4.33524157627e-05
-1.02137509241e-11
4.33524185741e-05
-1.1581062899e-11
4.33524220736e-05
-1.32456453555e-11
4.33524265027e-05
-1.52914394566e-11
4.3352431738e-05
-1.77945220278e-11
4.3352438081e-05
-2.08551747758e-11
4.33524458086e-05
-2.46399065375e-11
4.33524552667e-05
-2.93213968857e-11
4.33524668823e-05
-3.5100280066e-11
4.33524811696e-05
-4.22333606813e-11
4.33524987523e-05
-5.10520904398e-11
4.33525204073e-05
-6.19692384501e-11
4.33525471086e-05
-7.54866516746e-11
4.33525800592e-05
-9.22264693328e-11
4.33526207371e-05
-1.13007557156e-10
4.33526710928e-05
-1.38940042036e-10
4.3352733404e-05
-1.71063261028e-10
4.33528104914e-05
-2.10828052827e-10
4.33529058755e-05
-2.60082466799e-10
4.33530239301e-05
-3.2111826575e-10
4.33531700768e-05
-3.9677405239e-10
4.33533510286e-05
-4.90560683199e-10
4.33535750979e-05
-6.06818951829e-10
4.33538526039e-05
-7.50929468857e-10
4.33541963753e-05
-9.29565342669e-10
4.33546223443e-05
-1.15099802828e-09
4.33551502876e-05
-1.42552547503e-09
4.33558046749e-05
-1.7659905159e-09
4.33566158261e-05
-2.18843109378e-09
4.3357621432e-05
-2.71262473643e-09
4.33588681243e-05
-3.36318651493e-09
4.33604137608e-05
-4.17043613313e-09
4.33623302039e-05
-5.17185602227e-09
4.33647066613e-05
-6.41402539721e-09
4.33676538271e-05
-7.9548468924e-09
4.33713090413e-05
-9.86629903143e-09
4.3375842779e-05
-1.2237878961e-08
4.33814667742e-05
-1.51808572339e-08
4.33884440677e-05
-1.88336193034e-08
4.33971014762e-05
-2.33684496904e-08
4.34078452584e-05
-2.90000622141e-08
4.34211807829e-05
-3.59963055715e-08
4.34377370737e-05
-4.46917858593e-08
4.34582976071e-05
-5.55053032456e-08
4.3483839288e-05
-6.89621525201e-08
4.35155818315e-05
-8.57229179915e-08
4.35550504285e-05
-1.06621146211e-07
4.36041559319e-05
-1.32712985017e-07
4.36652982558e-05
-1.65343286131e-07
4.37415005103e-05
-2.06235209622e-07
4.38365847653e-05
-2.57613846958e-07
4.39554054253e-05
-3.22380016057e-07
4.41041633648e-05
-4.04360687141e-07
4.42908352789e-05
-5.0868056151e-07
4.45257705107e-05
-6.42332346902e-07
4.48225332258e-05
-8.15086839654e-07
4.51990953106e-05
-1.04100837191e-06
4.5679496733e-05
-1.34108347581e-06
4.62959735297e-05
-1.74793895241e-06
4.70909774053e-05
-2.31447175772e-06
4.81165240779e-05
-3.12951339552e-06
4.94228302868e-05
-4.34423444166e-06
5.10148809432e-05
-6.20816614941e-06
5.27268917676e-05
-9.09536544526e-06
-1.34171206818e-05
5.3972244168e-05
5.27606116654e-05
6.19129345584e-06
5.57402603957e-05
1.28705427811e-05
5.73124806745e-05
1.46831557391e-05
5.76113793613e-05
1.374833815e-05
5.7134268396e-05
1.16327694462e-05
5.632075898e-05
9.26381010414e-06
5.54510096926e-05
7.09211484366e-06
5.46659334326e-05
5.28027242652e-06
5.40178445389e-05
3.84767426109e-06
5.35118605501e-05
2.75343351107e-06
5.31319024411e-05
1.93782671724e-06
5.28549855476e-05
1.34129831501e-06
5.26581998192e-05
9.1193972025e-07
5.25216031533e-05
6.0744405902e-07
5.24290304235e-05
3.94670578157e-07
5.23679428499e-05
2.48332878819e-07
5.23289061552e-05
1.49500972491e-07
5.23049846156e-05
8.4210302374e-08
5.22911779259e-05
4.22826957997e-08
5.22839481122e-05
1.63764106953e-08
5.22808236103e-05
1.26421010811e-09
5.22801515249e-05
-6.80222682045e-09
5.22808131928e-05
-1.03627757245e-08
5.22821008863e-05
-1.12095754656e-08
5.22835817648e-05
-1.05366809373e-08
5.22850100757e-05
-9.12434094779e-09
5.22862627131e-05
-7.46039094739e-09
5.22872934827e-05
-5.83042257083e-09
5.22881014257e-05
-4.38393588076e-09
5.2288709507e-05
-3.18236996405e-09
5.22891508481e-05
-2.23346363103e-09
5.22894603706e-05
-1.51519448518e-09
5.22896701894e-05
-9.91803157418e-10
5.22898074818e-05
-6.23929221736e-10
5.22898939108e-05
-3.74484910256e-10
5.22899459317e-05
-2.11579657862e-10
5.22899755301e-05
-1.095169853e-10
5.22899911326e-05
-4.86388986026e-11
5.22899983437e-05
-1.460640562e-11
5.22900007723e-05
2.69488150756e-12
5.22900007581e-05
1.01550229926e-11
5.22899996418e-05
1.21386540378e-11
5.22899981955e-05
1.13866424543e-11
5.22899968062e-05
9.49513347829e-12
5.22899956534e-05
7.33025059405e-12
5.22899947811e-05
5.32287249034e-12
5.22899941823e-05
3.64059589086e-12
5.22899937884e-05
2.31852350767e-12
5.22899935519e-05
1.33640448e-12
5.22899932868e-05
6.23966128556e-13
5.22899930759e-05
1.52483914385e-13
5.22899929514e-05
-2.53297080978e-13
5.22899929222e-05
-6.05234949336e-13
5.2289992932e-05
-8.03815424998e-13
5.22899929561e-05
-9.45274450638e-13
5.22899929784e-05
-1.05925294397e-12
5.22899929941e-05
-1.15180692608e-12
5.22899930026e-05
-1.22986575686e-12
5.22899930037e-05
-1.29765714289e-12
5.22899929995e-05
-1.35739982461e-12
5.22899929909e-05
-1.4132933282e-12
5.22899929773e-05
-1.46995102376e-12
5.22899929605e-05
-1.53155332778e-12
5.22899929434e-05
-1.59856010733e-12
5.22899929283e-05
-1.6701661132e-12
5.22899929133e-05
-1.74410925996e-12
5.22899928934e-05
-1.81563510086e-12
5.22899928687e-05
-1.88644322705e-12
5.22899928351e-05
-1.96439237202e-12
5.22899927956e-05
-2.05535819525e-12
5.22899927529e-05
-2.1651398175e-12
5.22899927106e-05
-2.29172783502e-12
5.22899926673e-05
-2.42427597654e-12
5.22899926187e-05
-2.55288797197e-12
5.22899925602e-05
-2.67453957017e-12
5.22899924921e-05
-2.79377383513e-12
5.22899924204e-05
-2.92090201073e-12
5.22899923544e-05
-3.06696301701e-12
5.22899923023e-05
-3.23723076535e-12
5.22899922661e-05
-3.42772892337e-12
5.22899922422e-05
-3.62769028075e-12
5.22899922266e-05
-3.82636496262e-12
5.22899922213e-05
-4.01967072287e-12
5.22899922364e-05
-4.2126216746e-12
5.22899922869e-05
-4.41771946833e-12
5.22899923845e-05
-4.65183799656e-12
5.22899925342e-05
-4.93266036005e-12
5.22899927384e-05
-5.27519191826e-12
5.22899930058e-05
-5.69021205087e-12
5.22899933573e-05
-6.18693097973e-12
5.22899938252e-05
-6.77846552757e-12
5.22899944488e-05
-7.48514051687e-12
5.22899952691e-05
-8.33394668285e-12
5.228999633e-05
-9.35775740456e-12
5.22899976856e-05
-1.05962221162e-11
5.22899994125e-05
-1.20964804175e-11
5.22900016147e-05
-1.39194340701e-11
5.22900043924e-05
-1.61516664984e-11
5.22900079259e-05
-1.89052434472e-11
5.22900124103e-05
-2.23585288484e-11
5.22900180672e-05
-2.66306506977e-11
5.22900251787e-05
-3.18943292419e-11
5.22900341055e-05
-3.83743079311e-11
5.22900452837e-05
-4.6365864239e-11
5.22900592383e-05
-5.62511029331e-11
5.22900766191e-05
-6.85004305136e-11
5.22900982475e-05
-8.36796038814e-11
5.22901251548e-05
-1.02476841363e-10
5.2290158611e-05
-1.25753272634e-10
5.22902001431e-05
-1.54608020983e-10
5.22902515702e-05
-1.9044255369e-10
5.22903152785e-05
-2.34849072257e-10
5.22903942338e-05
-2.89854292185e-10
5.22904920902e-05
-3.58000471798e-10
5.22906133737e-05
-4.42450715262e-10
5.22907636972e-05
-5.47131146275e-10
5.22909500086e-05
-6.76903312872e-10
5.22911809065e-05
-8.37775027911e-10
5.22914670675e-05
-1.03719357685e-09
5.22918217894e-05
-1.28442389671e-09
5.22922615517e-05
-1.59090555076e-09
5.22928068157e-05
-1.97089462384e-09
5.2293482881e-05
-2.44216599365e-09
5.22943210815e-05
-3.02679304684e-09
5.2295360401e-05
-3.75209216022e-09
5.22966491221e-05
-4.65197017996e-09
5.22982470895e-05
-5.76839397001e-09
5.23002286059e-05
-7.15333266913e-09
5.23026859326e-05
-8.87126895429e-09
5.23057335488e-05
-1.10023162417e-08
5.23095134679e-05
-1.36460635083e-08
5.23142019597e-05
-1.69262798413e-08
5.23200179189e-05
-2.09967717266e-08
5.2327233161e-05
-2.60488112658e-08
5.23361852341e-05
-3.23204814832e-08
5.23472935152e-05
-4.01083260081e-08
5.23610792839e-05
-4.97820245753e-08
5.23781906733e-05
-6.18030617564e-08
5.23994339309e-05
-7.67484256525e-08
5.24258127222e-05
-9.53407994205e-08
5.24585774595e-05
-1.18487495309e-07
5.24992874359e-05
-1.47331023019e-07
5.25498895394e-05
-1.83315113836e-07
5.26128181702e-05
-2.28272003367e-07
5.26911224612e-05
-2.84539560268e-07
5.27886292801e-05
-3.55120675723e-07
5.29101532195e-05
-4.43903887973e-07
5.30617680647e-05
-5.55975306066e-07
5.32511581012e-05
-6.98070221008e-07
5.34880703393e-05
-8.79244436063e-07
5.37848842e-05
-1.11190148996e-06
5.41572850294e-05
-1.41341122776e-06
5.46249258732e-05
-1.80872642661e-06
5.52116645123e-05
-2.33467792634e-06