/*--------------------------------*- C++ -*----------------------------------*\
| =========                 |                                                 |
| \\      /  F ield         | OpenFOAM: The Open Source CFD Toolbox           |
|  \\    /   O peration     | Version:  2106                                  |
|   \\  /    A nd           | Website:  www.openfoam.com                      |
|    \\/     M anipulation  |                                                 |
\*---------------------------------------------------------------------------*/
FoamFile
{
    version     2.0;
    format      ascii;
    arch        "LSB;label=32;scalar=64";
    class       volScalarField;
    location    "0.26";
    object      p;
}
// * * * * * * * * * * * * * * * * * * * * * * * * * * * * * * * * * * * * * //

dimensions      [0 2 -2 0 0 0 0];

internalField   nonuniform List<scalar> 
11200
(
150.320569986
147.391967993
146.278116242
145.750783646
145.383452199
145.088671789
144.827025676
144.57848465
144.333963413
144.088892269
143.840574047
143.587254015
143.327700125
143.060976771
142.786317072
142.503047598
142.210542525
141.90819586
141.595408769
141.271593251
140.936125395
140.588356226
140.227627426
139.853271146
139.464601819
139.06091814
138.641503906
138.205628669
137.752548501
137.281506631
136.791734023
136.282449873
135.752861711
135.202165655
134.629547075
134.034181764
133.415235776
132.771865631
132.103218747
131.408433866
130.686641335
129.936963333
129.158514052
128.350399787
127.511718897
126.641561566
125.739009346
124.803134415
123.832998468
122.827651157
121.786127974
120.707447412
119.590607232
118.434579635
117.238305124
116.000684646
114.720569671
113.396749689
112.027936414
110.612743932
109.14966366
107.637032755
106.07299386
104.455446397
102.781980416
101.049790746
99.255566928
97.395348912
95.4643324753
93.4566028111
91.3647707812
89.1794767112
86.8885222584
84.4757209914
81.9189872842
79.1866617189
76.2311456209
72.9798656677
69.2791094323
64.515829104
148.527528209
147.169353833
146.37838144
145.878365743
145.487375763
145.163491165
144.878967631
144.614362665
144.358871733
144.106346388
143.85295929
143.596196806
143.334321853
143.066057938
142.790404607
142.506527025
142.213687786
141.911204068
141.598417453
141.274665983
140.939299563
140.591642687
140.23105166
139.856858338
139.468366725
139.064869795
138.645648503
138.209970574
137.757090796
137.286251414
136.796682399
136.287601395
135.75821405
135.207720136
134.635306982
134.040150389
133.421416142
132.778260719
132.109831565
131.415267486
130.693698972
129.944248415
129.166030324
128.358151434
127.51971067
126.649798957
125.747498801
124.811883587
123.842016535
122.836949202
121.795719467
120.717348783
119.600838587
118.445165664
117.249276205
116.012078221
114.732431939
113.409137719
112.040920784
110.626412115
109.164124614
107.652423077
106.089483826
104.473243981
102.80133593
101.071018908
99.2790774636
97.4216741609
95.4941695045
93.4908787603
91.4047330973
89.2267761916
86.9454603129
84.5456495749
82.0069487381
79.3008495487
76.3865536706
73.206226117
69.6570746504
65.5442280212
147.532337991
146.878137286
146.325780647
145.888161543
145.516536027
145.194432261
144.905330043
144.635093485
144.374627546
144.118143318
143.861755789
143.602783215
143.33931352
143.069919704
142.793480668
142.509067775
142.215871389
141.913152912
141.60021406
141.276377938
140.940982513
140.59338821
140.232851022
139.858717285
139.470294914
139.066874322
138.647734156
138.212141064
137.759349534
137.288602041
136.799129435
136.290151579
135.76087757
135.210499985
134.63820107
134.043159005
133.42454072
132.781503211
132.113194779
131.418755056
130.697315385
129.947999088
129.169921776
128.36219149
127.523908731
126.654166333
125.752049134
124.816633365
123.846985734
122.842162092
121.8012056
120.723144171
119.606987141
118.451720984
117.25630373
116.019657841
114.740661241
113.418136132
112.050834708
110.637421138
109.176448427
107.666329759
106.105301308
104.491394076
102.82237084
101.095638097
99.3081541624
97.4563203881
95.5358226083
93.541422302
91.4666698838
89.3035025757
87.0418254645
84.6687226895
82.167473312
79.5162170711
76.6869798663
73.6481452728
70.3637342949
66.8107221366
146.98257682
146.619195187
146.219296236
145.850304353
145.512685711
145.204580845
144.919214621
144.648507368
144.386131693
144.127460589
143.869075997
143.608446346
143.343671772
143.073284983
142.79610987
142.511163905
142.217590758
141.914614237
141.601507209
141.277569756
140.942110962
140.594440666
140.233917658
139.859818796
139.47143337
139.06805366
138.648958066
138.213412009
137.760668856
137.289970078
136.80054534
136.291612707
135.762379539
135.212044165
134.639796418
134.044810781
133.426255158
132.783287309
132.115054543
131.420696951
130.699346678
129.950128057
129.172158146
128.364546849
127.526397
126.65680434
125.75485727
124.819636399
123.850213786
122.845651775
121.805001354
120.727299987
119.611568723
118.456808375
117.261994606
116.026071731
114.747944773
113.426469195
112.060438116
110.648565983
109.189471244
107.681656727
106.12346112
104.513025534
102.848248445
101.126731149
99.3456983269
97.5018979166
95.5914769124
93.6098254639
91.551386621
89.409431011
87.1757269876
84.8402326922
82.3908592485
79.8135083846
77.0934344108
74.2209298872
71.1995922808
68.0666001953
146.64852892
146.416733146
146.115319815
145.804341264
145.499499711
145.207473767
144.928495172
144.659365678
144.396401664
144.136312971
143.876339169
143.614242818
143.348231373
143.076855737
142.798919197
142.513404771
142.219419817
141.916155126
141.602855388
141.278798007
140.943278116
140.595599395
140.2350655
139.860965851
139.472603302
139.069261509
138.650213646
138.214722725
137.762040775
137.291408708
136.802056269
136.293202204
135.764054371
135.213809442
134.641653502
134.046762868
133.428303006
132.785431867
132.117300078
131.423048163
130.70181076
129.952714535
129.174878989
128.367416803
127.529434083
126.660030424
125.758298851
124.82332557
123.854189377
122.849960875
121.80970158
120.73246159
119.617277339
118.463168433
117.269133378
116.034143874
114.757137166
113.437009752
112.072604129
110.662700562
109.205996738
107.701080404
106.146414849
104.540305482
102.880858736
101.165932725
99.3930799281
97.5594784465
95.6618487908
93.6963567968
91.6585058121
89.5430312901
87.3438248335
85.0539678214
82.6660395834
80.1730309095
77.5707451331
74.8636245502
72.0730289682
69.2496556442
146.445136489
146.269234155
146.028038523
145.760711357
145.483522474
145.206881756
144.935189138
144.668684104
144.40591509
144.144902015
143.883609962
143.620171866
143.352962246
143.08059025
142.80186298
142.515742717
142.221307419
141.917717692
141.604190808
141.27998098
140.944364814
140.596630433
140.236068446
139.861969126
139.473621899
139.070306
138.651291957
138.215840747
137.763202898
137.292618064
136.803314999
136.294511614
135.765415198
135.215222555
134.643120416
134.048286107
133.429888163
132.787086339
132.119031932
131.424869317
130.703733998
129.954753363
129.177049007
128.369736165
127.531924368
126.662717756
125.761214991
124.826509177
123.857687629
122.853831305
121.814013521
120.737299171
119.622742748
118.469385846
117.276253983
116.042352939
114.766664678
113.448136717
112.085678233
110.678140546
109.224307409
107.722886151
106.172493412
104.571613234
102.918578609
101.211539713
99.4484257043
97.6269029504
95.7443315709
93.7977258979
91.7837299138
89.6986320599
87.5384661506
85.2992911194
82.9778223073
80.5727082124
78.0870167122
75.5329027708
72.9373154653
70.3473541217
146.322019769
146.166411894
145.960109309
145.723546014
145.468069272
145.204787898
144.940172442
144.676661257
144.414525103
144.152936145
143.890560351
143.625921207
143.357588926
143.084254957
142.80474712
142.518017827
142.223122153
141.919194274
141.605426177
141.281049951
140.945323772
140.597521218
140.236923457
139.862812948
139.474470829
139.071171366
138.652182244
138.216762254
137.764160407
137.293615497
136.804355889
136.29559947
135.766553785
135.216416366
134.644375166
134.04960841
133.431285048
132.788565656
132.12060244
131.426538987
130.7055107
129.95664879
129.179079252
128.371921683
127.53429034
126.665294662
125.764039701
124.829626362
123.861151414
122.857707252
121.818381303
120.742255831
119.628406532
118.475900827
117.283795545
116.051133567
114.776939404
113.460217783
112.099943991
110.695057132
109.244456398
107.746981887
106.201404489
104.606411755
102.960591984
101.262416003
99.5102195058
97.702188678
95.8363539026
93.9106009251
91.9227156316
89.870492055
87.7519510174
85.565760272
83.3119890575
80.9933953473
78.6175289634
76.1999894965
73.7676546258
71.359883653
146.247940154
146.09792983
145.911173561
145.695067223
145.45535991
145.202537153
144.943898257
144.68315802
144.421788999
144.1598648
143.896644562
143.631004848
143.361705133
143.087524171
142.807318437
142.52003808
142.22472161
141.920481702
141.606488805
141.281955742
140.946124539
140.598255849
140.237620724
139.863493599
139.475150755
139.07186148
138.6528907
138.21749516
137.764922515
137.294410753
136.805187848
136.296471623
135.767469803
135.217380177
134.645390841
134.050680505
133.432418958
132.789767242
132.121878531
131.427899318
130.706971209
129.958227525
129.18079497
128.373796627
127.536351483
126.667574839
125.766578857
124.832473022
123.864364496
122.861358441
121.822558271
120.747064982
119.633976971
118.482389361
117.291392968
116.060072927
114.787506706
113.472760602
112.114886423
110.712916263
109.265858748
107.772694223
106.232368302
104.643784222
103.005797653
101.31721323
99.5767854514
97.783228409
95.9352407825
94.0315578325
92.0710474321
90.0528796447
87.9768090216
85.8436484308
83.6560120046
81.4194336936
79.1439513612
76.8461715143
74.5507766775
72.2897780109
146.205663834
146.056215992
145.879799893
145.676060969
145.446527378
145.200817881
144.946456542
144.687816566
144.427107928
144.165011603
143.901211692
143.634850322
143.364835953
143.090019925
142.809285487
142.521584451
142.22594478
141.92146394
141.607296581
141.282641133
140.946727426
140.598806225
140.238140878
139.864000793
139.475654795
139.072372175
138.653414764
138.218037563
137.765487251
137.295001263
136.805807301
136.297123207
135.768156906
135.218106563
134.646160837
134.051499262
133.433292731
132.790704058
132.122888806
131.428995577
130.708164729
129.959533227
129.182232806
128.375390927
127.538131655
126.669576488
125.768845173
124.835056445
123.867328731
122.864780784
121.82653226
120.751704263
119.639419722
118.488803596
117.298982877
116.069086305
114.798243826
113.485586249
112.130245479
110.731352494
109.288035902
107.799422048
106.264635154
104.682798498
103.053039024
101.37449638
99.6463399611
97.8677985146
96.0382091243
94.1570991127
92.2243139222
90.2402203699
88.2060140614
86.1241870216
83.9991863971
81.8383083538
79.6528049875
77.4590901623
75.2792111179
73.1393507867
146.186387422
146.036509422
145.864546002
145.666609906
145.442047752
145.199927666
144.94779129
144.6902809
144.429952048
144.167788851
143.90369604
143.636957861
143.366564715
143.091409108
142.81039037
142.522462311
142.226647872
141.922036677
141.607775033
141.283053668
140.947095844
140.599146998
140.238466232
139.86431965
139.475974738
139.072698065
138.653750526
138.218386406
137.765851953
137.295384492
136.806211721
136.297551671
135.768612648
135.218593357
134.646683199
134.052062666
133.433903816
132.79137079
132.123620307
131.429802322
130.709061626
129.960537562
129.183365158
128.376676178
127.539600036
126.671264726
125.770797873
124.83732776
123.869984399
122.867900625
121.830213235
120.75606411
119.644601382
118.494980621
117.306366078
116.077931956
114.808863802
113.498359452
112.145631586
110.749911285
109.3104467
107.826511182
106.297408365
104.72248045
103.101121572
101.432797462
99.7170754381
97.9536688575
96.1425029921
94.2838154235
92.3782987406
90.4273219115
88.4332261455
86.3997655379
84.3326484266
82.2402207679
80.1342079935
78.0303669833
75.9483911323
73.9102091963
146.186390011
146.036525487
145.864573007
145.666646137
145.442092438
145.199979967
144.947850288
144.690345768
144.430022088
144.167863488
143.903774811
143.637040405
143.366650763
143.091498481
142.810482959
142.522558066
142.226746793
141.922138824
141.607880515
141.283162647
140.94720855
140.599263729
140.238587378
139.864445722
139.476106434
139.072836117
138.653895848
138.218540133
137.766015477
137.295559359
136.806399951
136.297755725
135.768835498
135.218838611
134.646955231
134.052366761
133.434246353
132.791759514
132.124064788
131.430314488
130.709655497
129.961230162
129.184177254
128.377633023
127.540732294
126.672609633
125.772400642
124.839243279
123.872279295
122.870655777
121.833526813
120.760055264
119.649414727
118.500791678
117.313387816
116.086422655
114.819136567
113.510794021
112.160689158
110.768152308
109.332549984
107.853300155
106.329881809
104.76184913
103.148852106
101.490663099
99.7872146308
98.0386562592
96.2454340963
94.4083994497
92.5289879116
90.6094864875
88.6530136255
86.6641947593
84.649546185
82.6179703339
80.5812549122
78.5544200609
76.555371623
74.6032065961
146.205671655
146.056264561
145.879881511
145.676170401
145.446662286
145.200975556
144.946634184
144.688011709
144.427318494
144.165235875
143.901448286
143.635098165
143.365094258
143.090288153
142.80956331
142.52187172
142.226241516
141.921770323
141.607612941
141.282967958
140.94706539
140.599156216
140.23850404
139.864378679
139.47604939
139.07278567
138.653849863
138.218497569
137.76597619
137.295524021
136.806369855
136.297732802
135.76882235
135.218838566
134.646972452
134.052406387
133.434314691
132.79186427
132.12421533
131.430522195
130.709934209
129.961596733
129.184652189
128.378241235
127.541504041
126.673581679
125.773617616
124.840759348
123.874160197
122.8729813
121.836393773
120.763581106
119.65374191
118.506092987
117.31987277
116.094345335
114.828805128
113.522582256
112.17504822
110.785626013
109.353804152
107.879134796
106.361261743
104.799936807
103.195045255
101.546643505
99.8550215521
98.120759601
96.3447442956
94.5283526911
92.6735554728
90.7830507168
88.8608106149
86.9120910956
84.9438843393
82.9653447936
80.988147308
79.0266986924
77.0977190045
75.2186526334
146.247953383
146.098012017
145.911311438
145.695251697
145.455586875
145.202801926
144.944196086
144.68348476
144.422141181
144.160239566
143.897039625
143.63141845
143.362135986
143.087971382
142.807781466
142.520516705
142.225215888
141.920991944
141.607015566
141.28249984
140.946687107
140.59883837
140.238225023
139.86412232
139.475806779
139.072548572
138.653613354
138.218258811
137.765733778
137.295277675
136.806120206
136.297481293
135.768571187
135.218590734
134.646731787
134.05217771
133.434103967
132.791678822
132.124064107
131.430416113
130.709886571
129.961623724
129.184773495
128.378480801
127.541890981
126.674151366
125.774412999
124.841832556
123.875574507
122.874813498
121.838736989
120.766548273
119.657469952
118.510747862
117.325655535
116.101499469
114.837625357
113.533425354
112.188346105
110.80190024
109.373677779
107.903367211
106.390768412
104.835821465
103.238641227
101.599538947
99.9190664761
98.1980878552
96.4379256975
94.640392266
92.8079414006
90.9438349783
89.0523813767
87.1391829536
85.2114587754
83.278381539
81.3513931934
79.4444416234
77.5736617388
75.7559717042
146.322038771
146.166529835
145.960306518
145.723808936
145.468391708
145.20516298
144.940593338
144.677122097
144.415021017
144.153463158
143.891115307
143.62650169
143.358193164
143.084881728
142.805395688
142.518687894
142.223813806
141.919907942
141.606162604
141.281810228
140.946109428
140.598334334
140.237766679
139.863689696
139.475385126
139.072128311
138.653188009
138.217824286
137.765287764
137.294819214
136.805649408
136.296999165
135.768079536
135.218092165
134.646229741
134.051676544
133.433609121
132.791197027
132.123603659
131.429987193
130.709501613
129.961297873
129.184525176
128.378332419
127.541869775
126.67429043
125.774752523
124.842421344
123.876471811
122.876091194
121.840482221
120.768866701
119.660489654
118.514623994
117.330575966
116.107691575
114.845364111
113.543043115
112.200244928
110.816564821
109.391693079
107.925433951
106.417726159
104.868669428
103.27855518
101.647925202
99.9776129961
98.2688008301
96.5230998505
94.7426523062
92.9302563866
91.0895119724
89.225000217
87.3424953828
85.4492267154
83.5541780296
81.6684293461
79.805550972
77.9815554084
76.2138551425
146.445161932
146.269391555
146.028300255
145.761058501
145.483946262
145.207372812
144.9357384
144.669283942
144.406559257
144.145585464
143.88432872
143.620922906
143.353743352
143.081399911
142.802700281
142.516607281
142.222199317
141.91863736
141.605138993
141.280958734
140.94537346
140.597671902
140.237147206
139.863091025
139.474791523
139.071529111
138.652575963
138.217194706
137.764637862
137.294147622
136.804955865
136.296284302
135.767344799
135.21733979
134.645462765
134.050898865
133.432825569
132.790413546
132.122827557
131.429227463
130.708769356
129.960606736
129.183891863
128.37777731
127.541417652
126.673971383
125.774603082
124.842485859
123.876804084
122.876756442
121.841559493
120.770451798
119.662698587
118.517597156
117.334483167
116.112738177
114.851798345
113.551164621
112.210414853
110.829218367
109.407352986
107.944725769
106.441398178
104.897616707
103.313847904
101.690820091
100.029576349
98.3315382938
96.5985806245
94.8331162842
93.0382000764
91.21764923
89.376187084
87.5196042866
85.6549617233
83.7908524404
81.9377907008
80.1088572877
78.3200842611
76.5901477446
146.648561482
146.416934862
146.11565255
145.804779627
145.500031676
145.208087032
144.929178295
144.660109271
144.397198167
144.137156361
143.877224753
143.615167058
143.349191725
143.077850521
142.799947502
142.51446636
142.220514996
141.917284565
141.604019927
141.2799987
140.944516502
140.596876619
140.236383595
139.862338179
139.474033786
139.070755897
138.651780141
138.216371609
137.763784611
137.293262668
136.804038655
136.295335109
135.766364646
135.216330426
134.644426711
134.049839526
133.431747355
132.789321964
132.121729312
131.428130562
130.7076834
129.959543351
129.182865267
128.376804904
127.540520738
126.673176003
125.773940997
124.841995711
123.876532801
122.876760955
121.841908948
120.771230051
119.664007235
118.519559208
117.337247525
116.116484756
114.856743393
113.557568568
112.218591288
110.839544129
109.420280258
107.960796096
106.461257864
104.922033225
103.343728656
101.727233723
100.07377171
98.3849588133
96.662873806
94.9101344106
93.1299821383
91.3263745643
89.5040856213
87.668812127
85.827305075
83.9875577854
82.1591910353
80.3543584857
78.5885758939
76.8816988532
146.982616525
146.619444889
146.219702484
145.850834317
145.513323418
145.205310587
144.920022468
144.649382222
144.387064777
144.12844501
143.870106456
143.609518914
143.344783713
143.074434643
142.797296652
142.512388242
142.218854132
141.915919113
141.602856561
141.27896745
140.943566081
140.595968875
140.235491789
139.861442129
139.47311972
139.069814325
138.650804685
138.215358169
137.76273063
137.292166631
136.802899857
136.294153515
135.765140716
135.215065022
134.643121132
134.048495696
133.430368126
132.787911168
132.120291968
131.426673292
130.706214911
129.958073898
129.181407237
128.375373313
127.539133759
126.671855616
125.772713816
124.840894026
123.875595872
122.876036346
121.841454113
120.771114387
119.664314613
118.520390966
117.338725995
116.118757648
114.859990526
113.562006863
112.224481427
110.847199004
109.430074622
107.973177398
106.476758477
104.941283913
103.367472878
101.75634207
100.109256228
98.4279851209
96.7147663155
94.9723719947
93.2041777866
91.4142301001
89.6073049312
87.7889534082
85.9655393254
84.1442788965
82.3334735357
80.5435026329
78.7875800581
77.0843554495
147.532389656
146.878449127
146.326270427
145.888788435
145.517280383
145.195275089
144.906255189
144.636088379
144.375682351
144.119250325
143.862909015
143.603978107
143.340546691
143.071188751
142.794784059
142.510404876
142.217242819
141.91456143
141.601664804
141.2778775
140.942531334
140.594956107
140.234472857
139.860401387
139.472046251
139.068700468
138.649645318
138.214150023
137.761471907
137.290856523
136.801538296
136.292741054
135.763678475
135.213554674
134.64156486
134.046895828
133.42872609
132.786229651
132.118574553
131.424924262
130.704438958
129.956277918
129.179600039
128.373565845
127.537339544
126.670091258
125.770999629
124.839254743
123.874061368
122.874642987
121.84024623
120.770145943
119.663651022
118.5201114
117.338926112
116.119552584
114.861517437
113.564431261
112.228002411
110.852055363
109.436552077
107.981616962
106.487565988
104.954940529
103.384546038
101.777496317
100.135262813
98.4597291978
96.753248652
95.0187069079
93.2595773717
91.4799698663
89.6846571035
87.8790676567
86.0692183236
84.2614962117
82.4625608052
80.6799686682
78.9208305163
77.1938318623
148.527627261
147.169811103
146.379063711
145.879220207
145.488379325
145.164623038
144.88021082
144.615704071
144.360301132
144.107855727
143.854542193
143.59784818
143.336037478
143.067834046
142.792237466
142.508412543
142.215621002
141.913178332
141.600427309
141.276719347
140.941394716
140.593804172
140.233295716
139.859185974
139.470783272
139.067384
138.648271076
138.212712709
137.759967884
137.289283702
136.799895205
136.291026539
135.761891656
135.211694967
134.639632063
134.044890643
133.426652046
132.784089259
132.116370455
131.422659966
130.702119124
129.953907722
129.177185697
128.371114982
127.534861479
126.667597381
125.768503869
124.836774121
123.871616706
122.872259592
121.837954592
120.767982836
119.661660899
118.51834798
117.337454308
116.118451111
114.86088248
113.56437734
112.228666843
110.853602763
109.439179276
107.985558445
106.49309983
104.962394677
103.394305024
101.790008027
100.151045118
98.4793739784
96.7774214166
95.0481616191
93.2951423583
91.5225317127
89.7351344633
87.9383679208
86.138128905
84.3402835921
82.5503612592
80.7731230335
79.0033704024
77.2115734574
150.320735786
147.392637715
146.279109122
145.752037513
145.384936842
145.090362579
144.828904034
144.580536989
144.336179819
144.09126569
143.843099756
143.589929328
143.330524285
143.063950959
142.789444509
142.506333601
142.213994426
141.91182235
141.599214809
141.27556426
140.940265697
140.592678968
140.232135228
139.85796928
139.469498999
139.066025188
138.646834019
138.211200446
137.758382188
137.287624824
136.798163415
136.289222253
135.760015369
135.20974722
134.637613392
134.042801283
133.424491067
132.781856778
132.114067244
131.4202871
130.699678075
129.951400588
129.174615312
128.368484965
127.53217637
126.664862845
125.765726929
124.833963365
123.868782609
122.869414902
121.835114899
120.765167074
119.658892001
118.515653652
117.334867906
116.116012572
114.858639243
113.562387051
112.226998791
110.852339913
109.438420768
107.985422533
106.493727373
104.96395291
103.39699194
101.794056741
100.156728667
98.4870151366
96.7874127644
95.0609272802
93.3111637071
91.5423588793
89.7594020105
87.9678119851
86.1736352009
84.3833699064
82.6034387552
80.8386300997
79.068495529
77.1685364924
57.1213998067
53.5693181946
51.1778923731
49.2205667043
47.5487173879
46.0921778949
44.8069558413
43.6633225956
42.6395737684
41.7189255345
40.8879327824
40.1355538287
39.4525560912
38.8311173371
38.2645436345
37.7470607658
37.2736551853
36.8399492326
36.4421017249
36.0767270901
35.740828922
35.431745079
35.1471018334
34.8847755445
34.642860374
34.4196410779
34.2135698352
34.023246447
33.8474012693
33.68488056
33.5346334845
33.3957012316
33.2672068211
33.1483463421
33.0383809108
32.9366292596
32.8424604397
32.7552860049
32.6745510559
32.599739706
32.530471156
32.4666650553
32.4077655757
32.3533053444
32.3028764827
32.2561736017
32.2129259283
32.1728782566
32.135798732
32.1014869801
32.0697122223
32.0402752452
32.0129924645
31.9877039312
31.9642487573
31.9424720866
31.922236757
31.9034168801
31.8858949746
31.8695629369
31.8543216385
31.8400794463
31.8267515161
31.8142596348
31.802531162
31.7914989516
31.7811012729
31.7712813502
31.7619869144
31.7531702971
31.7447873116
31.7367971859
31.7291629089
31.721850342
31.7148284501
31.7080688929
31.7015456464
31.6952346756
31.6891139997
31.6831643295
31.6773666738
31.6717051634
31.666163958
31.6607289696
31.655387635
31.6501301182
31.6449442072
31.6398215646
31.6347528294
31.6297310556
31.6247496643
31.6198031006
31.6148978324
31.6100232913
31.6051618816
31.6003161836
31.595481989
31.5906893458
31.5859022864
31.581107969
31.5763011394
31.571478187
31.5666350539
31.5617680168
31.5568732056
31.551947304
31.5469869279
31.5419886532
31.5369492111
31.5318651993
31.5267334434
31.521550942
31.5163145576
31.511021576
31.5056694222
31.500255157
31.4947765969
31.4892317586
31.4836190554
31.4779376294
31.4721865047
31.4663662626
31.4604764038
31.4545164405
31.4484851786
31.4423686563
31.4361036211
31.4295451913
31.4238294852
31.4180667153
31.4121887149
31.4063696794
31.4006407368
31.3950811616
31.389753861
31.3847202588
31.3800306533
31.3757277755
31.3717959034
31.3683250336
31.3653090063
31.3625325569
31.3596193398
31.3556723736
31.3485961939
31.3338128305
31.3005809243
31.2272010418
31.0723922362
30.7658251355
30.2025328804
29.2503222744
27.7778579684
25.6940026037
22.9736932699
19.6729404098
15.908890518
11.6469371193
6.61146314519
1.57284300305
60.3027976569
56.2499526797
53.5379984346
51.3857593331
49.5840292978
48.0344025148
46.6786540177
45.4795249733
44.410807751
43.4528321683
42.5902202882
41.810593152
41.1037668521
40.4612300531
39.8757797413
39.3412601925
38.8523678312
38.404501616
37.9936455211
37.6162751968
37.2692825302
36.9499138361
36.6557195
36.38451174
36.1343298323
35.903411035
35.6901659347
35.4931571586
35.3110826079
35.1427582628
34.9871075506
34.8431466196
34.7099784038
34.5867793723
34.4727964348
34.367337706
34.2697690439
34.1795103465
34.0960324089
34.0188524086
33.9474950261
33.8813604537
33.8201328026
33.763486608
33.7110915841
33.6626311787
33.6178048239
33.5763340671
33.5379559288
33.5024282385
33.4695302652
33.4390616879
33.4108266219
33.384645522
33.3603570951
33.337814989
33.31688002
33.297421737
33.2793191925
33.2624644454
33.2467504433
33.2320787557
33.2183616332
33.2055153218
33.1934668421
33.1821433326
33.1714828866
33.1614249461
33.1519153665
33.1429047555
33.1343462633
33.126198524
33.1184216977
33.1109814511
33.1038438667
33.0969812094
33.0903646187
33.0839697334
33.0777750242
33.0717573651
33.0658998451
33.0601849897
33.0545952495
33.0491229572
33.0437513043
33.0384684223
33.0332614632
33.0281218763
33.0230403442
33.018008955
33.0130209165
33.0080670332
33.0031274699
32.9982056242
32.9932929051
32.9883902827
32.9834882893
32.9785756178
32.9736578532
32.968734342
32.9638014741
32.9588559199
32.9538940587
32.9489122379
32.9439069143
32.9388750257
32.9338123755
32.928717165
32.9235844063
32.9184127086
32.9131969994
32.9079350846
32.9026236193
32.8972603933
32.8918407779
32.8863645422
32.8808281373
32.8752304819
32.869569147
32.8638447094
32.8580580603
32.852211843
32.846306454
32.8403487138
32.834342957
32.8282962866
32.8222190609
32.8161417585
32.8102445576
32.8042202491
32.7982399198
32.7925950417
32.7870999196
32.7818468253
32.7769104441
32.772369714
32.7683012043
32.7648205241
32.761915214
32.7596215888
32.7579634577
32.7567396097
32.7555171647
32.7531912158
32.7471061937
32.7317803871
32.6943391538
32.6098427266
32.4318987069
32.0836898714
31.4540095595
30.4076727219
28.8165807581
26.5995588728
23.7434355675
20.3086220945
16.4102626882
12.0291508848
6.90334454839
1.70734826603
62.5102871569
58.5767979327
55.7096948925
53.4259093553
51.5241893351
49.8980566824
48.4824641152
47.2353700744
46.1273182284
45.13641034
44.2457121427
43.4417374493
42.7135024719
42.0519097891
41.4493220104
40.8992572301
40.3961642864
39.9352517722
39.5123554429
39.1238337932
38.7664846426
38.4374775021
38.1342991858
37.8547083028
37.5966982407
37.3584663479
37.1383881068
36.9349948551
36.7469563901
36.5730632586
36.4122158716
36.2634091207
36.1257262179
35.9983256293
35.8804365928
35.771350116
35.6704134682
35.5770247849
35.4906264606
35.41070475
35.3367851371
35.2683474497
35.2049114356
35.1462385514
35.0919816759
35.0417991029
34.9953787022
34.9524352026
34.9127025254
34.8759373318
34.8419093556
34.8104074873
34.781232699
34.7541993115
34.7291321183
34.7058770712
34.684290832
34.6642376306
34.6455912046
34.6282314006
34.6120532811
34.5969584631
34.5828563187
34.5696602884
34.5572944283
34.5456834035
34.5347622317
34.5244688137
34.5147461091
34.5055431206
34.4968108756
34.4885064326
34.4805884481
34.4730212948
34.4657694117
34.4588035616
34.4520946648
34.4456166931
34.4393467917
34.433262155
34.4273435166
34.4215733309
34.4159331931
34.4104075445
34.4049833643
34.399650692
34.3943962609
34.3892095692
34.3840805877
34.3790009398
34.3739628869
34.3689502494
34.3639686622
34.3590126502
34.3540728752
34.3491452813
34.3442248833
34.339307275
34.3343868409
34.3294589269
34.3245183252
34.3195624573
34.3145872399
34.3095892409
34.3045645284
34.2995101172
34.2944224193
34.2892994406
34.284136092
34.2789317074
34.2736814352
34.2683829966
34.2630336814
34.2576318335
34.2521729217
34.2466569507
34.2410810824
34.2354450203
34.2297470932
34.2239882454
34.2181709008
34.2122979733
34.2063728904
34.2004052143
34.1944012618
34.1883743654
34.1823434629
34.1763319015
34.1704051556
34.1645333476
34.1588774014
34.153242852
34.1479193935
34.1429378489
34.1383435699
34.1342428638
34.1307731481
34.1279727347
34.1259573276
34.1247483323
34.1243405852
34.1245234317
34.1247809203
34.1237693982
34.1182384966
34.1017490728
34.0592575173
33.9625826796
33.7604214436
33.3699638335
32.6746113625
31.5371403246
29.8331239834
27.4906109558
24.5065503883
20.9439422317
16.9146294422
12.4140663077
7.19496780862
1.83969617184
64.3145125113
60.5897882184
57.6858764246
55.3308720326
53.3610559698
51.6770831928
50.2137732234
48.9272170791
47.7861324132
46.7671564321
45.8522391952
45.027059553
44.280012043
43.6015354302
42.9836451863
42.4195978094