/*--------------------------------*- C++ -*----------------------------------*\
| =========                 |                                                 |
| \\      /  F ield         | OpenFOAM: The Open Source CFD Toolbox           |
|  \\    /   O peration     | Version:  2106                                  |
|   \\  /    A nd           | Website:  www.openfoam.com                      |
|    \\/     M anipulation  |                                                 |
\*---------------------------------------------------------------------------*/
FoamFile
{
    version     2.0;
    format      ascii;
    arch        "LSB;label=32;scalar=64";
    class       volScalarField;
    location    "0.29";
    object      p;
}
// * * * * * * * * * * * * * * * * * * * * * * * * * * * * * * * * * * * * * //

dimensions      [0 2 -2 0 0 0 0];

internalField   nonuniform List<scalar> 
9600
(
2.24937496687
-0.648629228218
-1.55286628011
-1.93847676639
-2.15780696983
-2.29774870814
-2.40165472154
-2.48920481695
-2.56870402562
-2.64409439964
-2.71746850513
-2.78997694494
-2.86224950002
-2.93461753212
-3.00723769228
-3.08016561108
-3.15340149158
-3.22691701032
-3.3006714493
-3.37462188103
-3.44872767919
-3.52295461711
-3.59727207154
-3.67165575634
-3.7460867343
-3.82055002975
-3.89503374437
-3.96952876273
-4.0440283926
-4.11852756425
-4.19302206866
-4.26750849583
-4.34198415557
-4.41644681769
-4.49089445948
-4.56532514271
-4.63973704408
-4.7141282291
-4.78849654429
-4.86283975807
-4.93715558712
-5.01144173187
-5.0856956555
-5.15991462925
-5.2340952035
-5.30823402452
-5.38232772833
-5.45637272462
-5.5303648877
-5.60429982888
-5.67817290779
-5.75197896814
-5.82571234617
-5.8993671836
-5.97293752588
-6.04641699713
-6.11979844147
-6.19307417137
-6.26623603942
-6.33927516573
-6.4121820024
-6.48494663939
-6.55755884453
-6.6300077059
-6.70228127949
-6.77436661305
-6.84624998038
-6.91791709073
-6.98935300108
-7.06054181912
-7.13146666719
-7.20210977341
-7.27245240608
-7.34247458707
-7.41215492502
-7.48147079972
-7.55039856669
-7.61891357885
-7.68699006767
-7.75460090317
-7.82171731484
-7.88830885192
-7.95434382339
-8.01978961105
-8.08461211349
-8.14877498483
-8.21223978384
-8.27496674659
-8.33691485184
-8.39804123996
-8.45830105771
-8.51764770339
-8.57603280604
-8.63340587979
-8.68971446897
-8.74490461936
-8.79892064764
-8.85170454122
-8.90319598084
-8.95333262636
-9.00205018493
-9.04928229025
-9.09496076851
-9.13901594141
-9.18137624424
-9.22196774295
-9.2607141509
-9.29753742749
-9.33235784999
-9.36509390167
-9.39566252328
-9.42397878138
-9.44995576879
-9.47350532544
-9.49453800243
-9.51296216733
-9.52868439293
-9.54161108625
-9.55164821666
-9.55869981143
-9.56266746318
-9.56345210855
-9.56095615422
-9.55508101023
-9.54572654588
-9.53279061792
-9.51617321946
-9.49577232668
-9.47148620299
-9.44321287786
-9.41085050327
-9.37429574127
-9.33344462603
-9.28819316511
-9.23843717265
-9.18407073916
-9.12498561336
-9.06107313715
-8.99222080953
-8.91831028461
-8.8392189164
-8.75481697583
-8.66496599142
-8.56951379778
-8.46829309062
-8.3611164884
-8.2477653773
-8.12798500648
-8.0014715374
-7.86785332974
-7.72666006221
-7.57728136627
-7.41889719411
-7.25034595182
-7.06991332176
-6.87501670126
-6.66172003246
-6.42420128406
-6.16311291089
-5.94039524027
0.337830112702
-0.844515821924
-1.45319250076
-1.80721776128
-2.04983452271
-2.22039636681
-2.34846847327
-2.45297187201
-2.54404748787
-2.62732592774
-2.70609896804
-2.78231593983
-2.85713602628
-2.93124776721
-3.00505359035
-3.07877996197
-3.15254654933
-3.22640925895
-3.30038642686
-3.37447611668
-3.44866663206
-3.52294175076
-3.59728500928
-3.67168096011
-3.74611609217
-3.82057900113
-3.89506013849
-3.96955172287
-4.04404774979
-4.11854366302
-4.19303551043
-4.26751978239
-4.34199367958
-4.41645504125
-4.49090189551
-4.56533220474
-4.63974399156
-4.71413522476
-4.78850375456
-4.86284737491
-4.93716381524
-5.01145060304
-5.08570527666
-5.15992498748
-5.23410649566
-5.30824633319
-5.38234105258
-5.45638711482
-5.53038053693
-5.60431681333
-5.67819123273
-5.75199868513
-5.82573358922
-5.89939006589
-5.97296216343
-6.04644359647
-6.11982724031
-6.19310523307
-6.26626933366
-6.33931079921
-6.41222028317
-6.48498787566
-6.55760320541
-6.63005528114
-6.70233218247
-6.77442105356
-6.84630824109
-6.91797940481
-6.98941953928
-7.06061283609
-7.13154252564
-7.20219081606
-7.27253887086
-7.34256668923
-7.41225292263
-7.48157498734
-7.55050928521
-7.6190312081
-7.68711495994
-7.75473335494
-7.82185769929
-7.88845770095
-7.9545016177
-8.01995660446
-8.08478854612
-8.14896136727
-8.21243674487
-8.27517469382
-8.33713405657
-8.39827216325
-8.45854435777
-8.51790393444
-8.57630230662
-8.63368898967
-8.69001171091
-8.74521670667
-8.7992483117
-8.85204823409
-8.90355589413
-8.95370909337
-9.00244403356
-9.0496944282
-9.09539159689
-9.13946563275
-9.18184533106
-9.22245701079
-9.26122430027
-9.29806890275
-9.33291095465
-9.36566892137
-9.39625983041
-9.42459883382
-9.450599195
-9.47417237293
-9.4952285128
-9.51367646215
-9.52942357028
-9.54237556609
-9.55243750397
-9.55951421277
-9.56350836932
-9.56432069768
-9.56185206458
-9.55600455441
-9.54667706102
-9.53376873831
-9.51717880047
-9.49680661793
-9.4725506013
-9.44430912909
-9.41198112259
-9.37546462735
-9.3346561896
-9.28945254445
-9.2397514673
-9.18544941414
-9.12643938504
-9.062614539
-8.99386691852
-8.92008322796
-8.84114583775
-8.75693137049
-8.66731053291
-8.57214192708
-8.47127083692
-8.36452940785
-8.25172476562
-8.13263435365
-8.00699785917
-7.8745077277
-7.73478948697
-7.58737850445
-7.43169743262
-7.26701439044
-7.09241556792
-6.90686079684
-6.7093942879
-6.49895283599
-6.27558810405
-6.06079559373
-0.638011959808
-1.11937398597
-1.51063275532
-1.80224880574
-2.02382359507
-2.19175857973
-2.3238601127
-2.43364934283
-2.52950817909
-2.61665267395
-2.69839478973
-2.77682924952
-2.85327613479
-2.92856511214
-3.00321284852
-3.0775345707
-3.15171711053
-3.22586677739
-3.30003943248
-3.37426047048
-3.44853746328
-3.52286842621
-3.59724693787
-3.67166456322
-3.74611237056
-3.82058211317
-3.89506658663
-3.96955956387
-4.04405581762
-4.1185512243
-4.19304225238
-4.26752571814
-4.3419989554
-4.41645978767
-4.49090627447
-4.565336415
-4.63974812921
-4.71413929811
-4.78850772552
-4.86285130064
-4.93716784811
-5.01145491505
-5.08570977637
-5.15992964155
-5.23411140785
-5.30825174571
-5.38234706438
-5.45639371506
-5.53038772977
-5.60432462359
-5.67819960014
-5.75200759196
-5.82574315532
-5.89940048788
-5.97297346994
-6.04645575539
-6.11984033156
-6.1931193383
-6.26628440421
-6.33932683012
-6.41223746108
-6.48500646945
-6.55762336012
-6.63007694692
-6.70235526771
-6.77444558742
-6.84633442992
-6.91800744159
-6.989449523
-7.06064486866
-7.13157679787
-7.20222751669
-7.27257806272
-7.34260835152
-7.41229708415
-7.48162177813
-7.5505589335
-7.61908401681
-7.68717118423
-7.75479304948
-7.82192082646
-7.88852446837
-7.9545724797
-8.02003182624
-8.08486802901
-8.14904507048
-8.21252499247
-8.27526787162
-8.33723232555
-8.39837563405
-8.45865330214
-8.51801863004
-8.57642284746
-8.63381548431
-8.69014448016
-8.74535608894
-8.79939449321
-8.85220136254
-8.90371607719
-8.95387636303
-9.00261838452
-9.04987616853
-9.09558125857
-9.13966363086
-9.18205166536
-9.22267155347
-9.26144706828
-9.29830012446
-9.33315106084
-9.36591840358
-9.39651893988
-9.42486797719
-9.45087908912
-9.47446353111
-9.49553068275
-9.51398977287
-9.52974913139
-9.5427145205
-9.55279003032
-9.55987962141
-9.56388741009
-9.56471491431
-9.56226287029
-9.55643258626
-9.5471245775
-9.53423787558
-9.51767188333
-9.49732595375
-9.47309930713
-9.44489006951
-9.41259720731
-9.37611986515
-9.33535611993
-9.29020383459
-9.24056154328
-9.18632817853
-9.12739964761
-9.06367057249
-8.99503584871
-8.92138692285
-8.84261170099
-8.75859361339
-8.66921226915
-8.57433789104
-8.47382856936
-8.36753366171
-8.25528512911
-8.13689328913
-8.01214022005
-7.88077651258
-7.74251471579
-7.59701555755
-7.44389031908
-7.28270426024
-7.11300739482
-6.93445244263
-6.74707299539
-6.5514073529
-6.34856350092
-6.1469314386
-1.18947042347
-1.37581363624
-1.61826074413
-1.84072752415
-2.02791950822
-2.18194704024
-2.31038391482
-2.42067472437
-2.51846956531
-2.60782951421
-2.6916004985
-2.77172717615
-2.84951688984
-2.92583861955
-3.00126314038
-3.07615911198
-3.15075987513
-3.22520987881
-3.29959538619
-3.37396541565
-3.44834529968
-3.52274620295
-3.59717189223
-3.67162037394
-3.74608804365
-3.82057017648
-3.89506210438
-3.96955946002
-4.04405814133
-4.11855461092
-4.19304585208
-4.26752920038
-4.34200227383
-4.41646294156
-4.49090928534
-4.56533931429
-4.63975094045
-4.71414200654
-4.78851036691
-4.86285388823
-4.93717043732
-5.0114576074
-5.08571265335
-5.1599326898
-5.23411468984
-5.30825537365
-5.38235112219
-5.45639811653
-5.53039238175
-5.60432950145
-5.67820471386
-5.75201295889
-5.82574892973
-5.89940690714
-5.97298062408
-6.04646343994
-6.11984838971
-6.19312786964
-6.26629358049
-6.33933672194
-6.41224811751
-6.48501799882
-6.55763581635
-6.63009028369
-6.70236939036
-6.77446050898
-6.84635027571
-6.91802442745
-6.98946781364
-7.06066452364
-7.13159784545
-7.20225001258
-7.27260203648
-7.34263378005
-7.4123239682
-7.48165019294
-7.55058901701
-7.61911596059
-7.68720521428
-7.75482929391
-7.82195921301
-7.88856493713
-7.95461524756
-8.02007722535
-8.08491613978
-8.14909576069
-8.21257830135
-8.27532407241
-8.33729164988
-8.39843815791
-8.45871908306
-8.51808780916
-8.57649559721
-8.63389203039
-8.69022510328
-8.7454408947
-8.7994833819
-8.8522943721
-8.90381357251
-8.95397863321
-9.00272547923
-9.04998819546
-9.09569886771
-9.13978747284
-9.18218191393
-9.22280808206
-9.26158979758
-9.29844923735
-9.33330713165
-9.36608195934
-9.3966899065
-9.4250460223
-9.45106429446
-9.47465623993
-9.49573120007
-9.51419800898
-9.52996526397
-9.5429397785
-9.55302528207
-9.56012499402
-9.56414242148
-9.56498051707
-9.56254027855
-9.55672271756
-9.54742844888
-9.53455734378
-9.51800839543
-9.49768136423
-9.47347650446
-9.44529291107
-9.41302944588
-9.37658602934
-9.33586279283
-9.29075902781
-9.24117389311
-9.18700824299
-9.12816190873
-9.0645324924
-8.99601760819
-8.92251341972
-8.84391400881
-8.76010984075
-8.67098931958
-8.576435429
-8.47632095842
-8.37051290049
-8.25886750318
-8.14122812353
-8.01742049377
-7.88725096367
-7.75051178444
-7.60697445649
-7.45640098554
-7.29856747457
-7.13330375403
-6.9605804598
-6.78067053862
-6.59421217173
-6.40208073339
-6.20739202527
-1.52681402932
-1.57857580891
-1.72247159308
-1.88676298173
-2.04109665831
-2.17915460944
-2.30130782649
-2.41009599149
-2.50854033325
-2.59937057126
-2.68477815131
-2.76641615179
-2.84548624692
-2.92283995291
-2.99906914257
-3.07457771809
-3.14963611296
-3.22442240258
-3.2990513441
-3.37359517312
-3.44809764249
-3.52258391996
-3.59706796501
-3.67155561796
-3.74604926906
-3.82054831145
-3.8950509219
-3.96955483663
-4.04405740575
-4.11855597469
-4.19304819654
-4.26753195185
-4.34200518008
-4.41646590618
-4.49091223699
-4.56534220042
-4.63975368924
-4.71414459745
-4.78851287501
-4.86285640623
-4.93717296952
-5.0114601896
-5.08571538041
-5.15993569355
-5.2341180466
-5.30825912979
-5.38235532775
-5.45640275667
-5.53039740294
-5.60433490281
-5.67821049444
-5.75201915871
-5.82575564632
-5.89941423723
-5.97298860652
-6.04647200996
-6.11985747046
-6.19313750332
-6.2663039163
-6.33934789002
-6.4122601699
-6.48503096157
-6.55764970006
-6.63010511242
-6.70238522883
-6.7744774071
-6.84636828683
-6.91804367685
-6.9894884892
-7.06068676293
-7.13162167874
-7.20227544408
-7.27262911352
-7.34266257138
-7.41235454119
-7.48168262086
-7.55062338501
-7.6191523824
-7.68724388246
-7.75487042527
-7.82200290384
-7.88861117445
-7.95466409706
-8.02012890974
-8.08497087287
-8.14915359066
-8.2126392394
-8.27538828079
-8.33735935351
-8.39850948972
-8.45879407552
-8.51816651404
-8.57657818996
-8.6339787917
-8.69031628551
-8.74553654092
-8.79958331692
-8.85239855273
-8.90392226761
-8.95409209431
-9.002843686
-9.05011121249
-9.09582693401
-9.13992073236
-9.18232037403
-9.22295180377
-9.26173896988
-9.29860406336
-9.33346772245
-9.36624851873
-9.39686282614
-9.42522550846
-9.45125010957
-9.47484857931
-9.49593083356
-9.51440525916
-9.53018012632
-9.54316240981
-9.55325692709
-9.56036651628
-9.5643939427
-9.56524246677
-9.56281381147
-9.55700878344
-9.54772862695
-9.5348735706
-9.51834296143
-9.49803624168
-9.47385441405
-9.44569790776
-9.41346597583
-9.37705916249
-9.33637911528
-9.29132718461
-9.24180408563
-9.1877118
-9.12895330231
-9.06543010844
-8.99704325687
-8.92369409526
-8.84528339962
-8.76170860365
-8.67286641978
-8.57865271236
-8.47895597182
-8.3736612354
-8.26264789396
-8.1457894728
-8.0229532697
-7.89399601751
-7.75877619169
-7.61715451916
-7.46900330447
-7.31423531843
-7.1528348367
-6.9849054508
-6.81073095527
-6.63073564111
-6.44524708831
-6.25489797532
-1.73088760497
-1.72590752962
-1.80988472985
-1.93067222845
-2.0573153029
-2.17999531495
-2.29489193317
-2.40108772955
-2.49937094455
-2.59116037033
-2.67792135368
-2.7609365405
-2.84124081215
-2.9196275278
-2.99668462462
-3.07283686124
-3.14838433445
-3.2235353368
-3.29843174817
-3.37316869114
-3.4478087152
-3.52239165065
-3.59694228942
-3.67147587652
-3.74600009918
-3.82051934859
-3.89503500167
-3.96954705036
-4.04405451844
-4.11855591791
-4.19304969783
-4.26753425789
-4.34200788602
-4.41646877156
-4.49091510126
-4.565344957
-4.6397562679
-4.71414698794
-4.78851511741
-4.8628586145
-4.9371752366
-5.01146252564
-5.08571783436
-5.159938342
-5.23412097629
-5.30826235155
-5.3823588238
-5.45640646177
-5.53040123367
-5.60433883899
-5.6782146578
-5.75202374844
-5.825760742
-5.89941983247
-5.9729947149
-6.04647861013
-6.1198644402
-6.19314480348
-6.26631169431
-6.33935634422
-6.41226936498
-6.48504083408
-6.55766018831
-6.63011623561
-6.7023970815
-6.77449005127
-6.84638177191
-6.91805813247
-6.98950409303
-7.06070358886
-7.13163965389
-7.20229450352
-7.2726493086
-7.34268400219
-7.41237729745
-7.48170681893
-7.55064915402
-7.61917972687
-7.68727270363
-7.75490079743
-7.82203510642
-7.88864537285
-7.95470023875
-8.02016702821
-8.08501122195
-8.14919632595
-8.21268428219
-8.27543562254
-8.33740923752
-8.39856218381
-8.45884963257
-8.51822493736
-8.57663970131
-8.63404370123
-8.69038470492
-8.74560836924
-8.79965845587
-8.85247711841
-8.90400456662
-8.95417842512
-9.0029342156
-9.05020616884
-9.09592663275
-9.14002532346
-9.18242977885
-9.22306604555
-9.26185851098
-9.29872942566
-9.33359883592
-9.36638512071
-9.39700525526
-9.42537416873
-9.45140485225
-9.47500932742
-9.49609813831
-9.51458015993
-9.53036275818
-9.54335267524
-9.55345548422
-9.56057422195
-9.56461172321
-9.56547078514
-9.56305376697
-9.55726193179
-9.54799599044
-9.53515699272
-9.51864516943
-9.49836007484
-9.47420256998
-9.44607413786
-9.41387536957
-9.37750734977
-9.33687261245
-9.2918746027
-9.24241633136
-9.18840118171
-9.1297344669
-9.06632150563
-8.9980671715
-8.92487770468
-8.84666046293
-8.76332032621
-8.6747617254
-8.58089187773
-8.48161417276
-8.37683102169
-8.26644316746
-8.15034942968
-8.02845258461
-7.90065193549
-7.76685594403
-7.6269891953
-7.48099769662
-7.32887169842
-7.17066579699
-7.00651883472
-6.83665925384
-6.66132747955
-6.48055444815
-6.2941518342
-1.85401674946
-1.82855782068
-1.87791972857
-1.96807827128
-2.07300262768
-2.18232489578
-2.29016187959
-2.39338516941
-2.49105900283
-2.58344979706
-2.67132140065
-2.75556537182
-2.8370208054
-2.91639879168
-2.99426635583
-3.07105801702
-3.14709680344
-3.2226174361
-3.29778697412
-3.37272242075
-3.44750458571
-3.52218794302
-3.59680854798
-3.67139006392
-3.74594648445
-3.82048719104
-3.89501680534
-3.96953763652
-4.04405046859
-4.11855506787
-4.19305066662
-4.26753620651
-4.34201034201
-4.41647143288
-4.49091773287
-4.56534739168
-4.63975849831
-4.71414905469
-4.78851708479
-4.8628605402
-4.93717719323
-5.01146459159
-5.0857200393
-5.1599406747
-5.23412344001
-5.30826498659
-5.38236168235
-5.45640955112
-5.53040447056
-5.60434224439
-5.67821839126
-5.75202794784
-5.82576540564
-5.89942487648
-5.97300010996
-6.04648440425
-6.11987065367
-6.19315138719
-6.26631866789
-6.33936382947
-6.41227746027
-6.48504953071
-6.55766943645
-6.63012602781
-6.70240748973
-6.7745011924
-6.84639373777
-6.9180709848
-6.98951789623
-7.06071839064
-7.13165545768
-7.20231132392
-7.27266722555
-7.34270309366
-7.41239759319
-7.48172836829
-7.55067207615
-7.61920407229
-7.68729835421
-7.75492770013
-7.82206351021
-7.88867562252
-7.95473242387
-8.02020104367
-8.08504710273
-8.14923426361
-8.21272435869
-8.27547779325
-8.33745354147
-8.39860879838
-8.45889873181
-8.51827660845
-8.57669400414
-8.63410069643
-8.69044436636
-8.74567067147
-8.79972348163
-8.85254502123
-8.90407546058
-8.95425248028
-9.00301155399
-9.05028678498
-9.09601063899
-9.14011305613
-9.18252136069
-9.22316141843
-9.26195794097
-9.29883336557
-9.33370733336
-9.36649804119
-9.39712277928
-9.42549672712
-9.45153272007
-9.47514216065
-9.49623614103
-9.51472429153
-9.53051384567
-9.5435111102
-9.55362111849
-9.5607478337
-9.56479401304
-9.56566269478
-9.56325661786
-9.55747716935
-9.54822504168
-9.53540124879
-9.51890716846
-9.4986431556
-9.47450968359
-9.44640891789
-9.41424298713
-9.37791396007
-9.33732503345
-9.29238083665
-9.24298676325
-9.18904858858
-9.1304738243
-9.06717117567
-8.99904938066
-8.92601868835
-8.84799231804
-8.76488327935
-8.67660346602
-8.58306943866
-8.4841978163
-8.37990636014
-8.2701150781
-8.15474375388
-8.03372286844
-7.90698639311
-7.77447931951
-7.6361692589
-7.49204913951
-7.34215133049
-7.18655830775
-7.02541003062
-6.85888826036
-6.68714915613
-6.51018257939
-6.32776960614
-1.9280592786
-1.89700620646
-1.92693897998
-1.99671094884
-2.08587870264
-2.18475499932
-2.28663448417
-2.38710661851
-2.48403307414
-2.57677964416
-2.66551710088
-2.75078349112
-2.83322852394
-2.91347621987
-2.99206498613
-3.06943146426
-3.14591515619
-3.22177227987
-3.29719154334
-3.37230920429
-3.44722223595
-3.5219982567
-3.59668360734
-3.67130978867
-3.74589605813
-3.82045668164
-3.89499929131
-3.96952837205
-4.04404631934
-4.11855400559
-4.1930513675
-4.26753783849
-4.34201243246
-4.41647372783
-4.49091998191
-4.56534941042
-4.63976026283
-4.71415070789
-4.78851875378
-4.86286224703
-4.93717892718
-5.01146637659
-5.0857219193
-5.15994262333
-5.23412540943
-5.30826699405
-5.38236383233
-5.45641191287
-5.53040702091
-5.60434495916
-5.67822133854
-5.7520312698
-5.82576914138
-5.89942892209
-5.97300437204
-6.04648895028
-6.11987557863
-6.19315666488
-6.26632422992
-6.3393697084
-6.41228375334
-6.48505629825
-6.55767667164
-6.63013368494
-6.70241558396
-6.77450984588
-6.84640308665
-6.91808106231
-6.98952865278
-7.06072981674
-7.1316676329
-7.20232437522
-7.27268125598
-7.34271812896
-7.41241357494
-7.48174522423
-7.55068981631
-7.61922277994
-7.68731803696
-7.75494832024
-7.8220852187
-7.88869874859
-7.95475715809
-8.02022728905
-8.08507474417
-8.14926340046
-8.21275515626
-8.27551027668
-8.33748765737
-8.39864461306
-8.4589364645
-8.51831645287
-8.57673598104
-8.63414469318
-8.69049029723
-8.74571869147
-8.79977392001
-8.85259796669
-8.90413078273
-8.9543102862
-9.00307211577
-9.05035007372
-9.09607649336
-9.14018165708
-9.18259314048
-9.22323664717
-9.26203660013
-9.29891533036
-9.33379274874
-9.36658719356
-9.39721568752
-9.4255936246
-9.45163389826
-9.47524769317
-9.49634616661
-9.51483911954
-9.53063446129
-9.54363785681
-9.55375422923
-9.56088778501
-9.56494183058
-9.56581934319
-9.56342304313
-9.55765502502
-9.54841594711
-9.53560668091
-9.51912919273
-9.49888494649
-9.4747748213
-9.44670108163
-9.41456695132
-9.37827597894
-9.33773222286
-9.29284107555
-9.24350993257
-9.18964717872
-9.13116260006
-9.0679679309
-8.99997589563
-8.92710048812
-8.84925942111
-8.76637344628
-8.6783621902
-8.58515020618
-8.48666533135
-8.38283820517
-8.27360587437
-8.15890598399
-8.038690205
-7.91291940706
-7.78156625759
-7.64462824272
-7.50212881834
-7.35412796962
-7.20072386282
-7.04205908796
-6.87830651918
-6.70962343021
-6.53609044628
-6.35771561556
-1.97029265196
-1.938725453
-1.95837177902
-2.01581749704
-2.09483065274
-2.18660845269
-2.28422628935
-2.38261399185
-2.47889539475
-2.57182935437
-2.66116216065
-2.74716616772
-2.83034190241
-2.91124095139
-2.99037509815
-3.06817930686
-3.14500349877
-3.22111901616
-3.29673052493
-3.37198880525
-3.4470030461
-3.52185082071
-3.59658618894
-3.67124601936
-3.74585656489
-3.82043279419
-3.89498548892
-3.96952102191
-4.04404298566
-4.11855310166
-4.19305187662
-4.26753907498
-4.34201400264
-4.41647542024
-4.49092165441
-4.56535091654
-4.63976158665
-4.71415194056
-4.78852003548
-4.86286366353
-4.93718042854
-5.01146785575
-5.08572332403
-5.15994397902
-5.2341267873
-5.30826844773
-5.3823653684
-5.45641358492
-5.53040889594
-5.60434706391
-5.67822367196
-5.75203384036
-5.82577198349
-5.89943201713
-5.97300767305
-6.04649243618
-6.11987929615
-6.19316066237
-6.26632849266
-6.33937420845
-6.41228850373
-6.48506135441
-6.55768207858
-6.63013942576
-6.70242163854
-6.77451629303
-6.84641006497
-6.91808861796
-6.98953670771
-7.06073832693
-7.13167669683
-7.20233412583
-7.27269177279
-7.34272944593
-7.41242567413
-7.48175796976
-7.55070303271
-7.61923647855
-7.68733243898
-7.75496362223
-7.82210146559
-7.88871598005
-7.95477552025
-8.02024686631
-8.08509541742
-8.14928504167
-8.2127778398
-8.27553417993
-8.33751285591
-8.39867106908
-8.45896419116
-8.51834560113
-8.57676664458
-8.63417677919
-8.69052371391
-8.74575364068
-8.79981074733
-8.85263670617
-8.9041711564
-8.95435219776
-9.00311590535
-9.05039602279
-9.09612448194
-9.14023148691
-9.18264512325
-9.22329128451
-9.26209381994
-9.29897488288
-9.33385495217
-9.36665241673
-9.39728388013
-9.42566457802
-9.45170779298
-9.47532530725
-9.49642768733
-9.51492475755
-9.53072445314
-9.54373270819
-9.55385418883
-9.56099376778
-9.56505487138
-9.56594033906
-9.56355303751
-9.55779519715
-9.54856804401
-9.53577254853
-9.51931061899
-9.49908484641
-9.4749971277
-9.44694969962
-9.41484631843
-9.37859191623
-9.33809177183
-9.29325249629
-9.24398313665
-9.1901940595
-9.13179727232
-9.06870738099
-9.00084115337
-8.92811663596
-8.85045500918
-8.76778343623
-8.68002938522
-8.58712460312
-8.48900658244
-8.38561717864
-8.27690768285
-8.16283160126
-8.0433577353
-7.91846798556
-7.78815743366
-7.65244706933
-7.51138310515
-7.36504894136
-7.21356239734
-7.05708193772
-6.89580574912
-6.72994598643
-6.55971730984
-6.38537719171
-1.98954107301
-1.95844227186
-1.97366667402
-2.02533390623
-2.09939169722
-2.18759212009
-2.28299609472
-2.38026507686
-2.47617708259
-2.56918779751
-2.65882325842
-2.74521393728
-2.82877830297
-2.91002678708
-2.98945520498
-3.06749656058
-3.14450577105
-3.22076197187
-3.29647829703
-3.37181338698
-3.44688302589
-3.52177013059
-3.5965330532
-3.67121209564
-3.74583507825
-3.8204196965
-3.89497791938
-3.9695170191
-4.04404117929
-4.1185526121
-4.19305217708
-4.26753982656
-4.34201492933
-4.41647636362
-4.49092256401
-4.5653518001
-4.63976242385
-4.71415274036
-4.78852086789
-4.8628646234
-4.93718152931
-5.01146893912
-5.0857242371
-5.15994475698
-5.23412761387
-5.30826942656
-5.38236643952
-5.4564147057
-5.53041014504
-5.60434852648
-5.67822529775
-5.75203554272
-5.82577378218
-5.89943401345
-5.9730099023
-6.04649483714
-6.11988182859
-6.19316337168
-6.26633140659
-6.3393772816
-6.41229169613
-6.4850647059
-6.55768566483
-6.63014326964
-6.70242570452
-6.77452057221
-6.84641461521
-6.91809348827
-6.98954188678
-7.06074384391
-7.1316826584
-7.20234061288
-7.27269876445
-7.34273690079
-7.41243358927
-7.48176628077
-7.55071156494
-7.61924518182
-7.68734157712
-7.75497350581
-7.82211209946
-7.88872719759
-7.95478734211
-8.02025946538
-8.08510878538
-8.14929897273
-8.21279226052
-8.27554926727
-8.33752881672
-8.39868790658
-8.45898176589
-8.51836389743
-8.57678578709
-8.63419685243
-8.69054474785
-8.74577565892
-8.79983384339
-8.85266100422
-8.90419659688
-8.95437852993
-9.00314315879
-9.05042456365
-9.09615448275
-9.1402627793
-9.18267765768
-9.22332529608
-9.26212940535
-9.29901211983
-9.33389401204
-9.36669348777
-9.39732704859
-9.42570954201
-9.45175475053
-9.47537482971
-9.4964803069
-9.51498049981
-9.53078348444
-9.54379534125
-9.55392110557
-9.56106555592
-9.56513265068
-9.56602535021
-9.56364606658
-9.55789724037
-9.54868073384
-9.53589788309
-9.51945070281
-9.49924230544
-9.4751756104
-9.44715343332
-9.41507986636
-9.3788607169
-9.33840262483
-9.29361381683
-9.24440489258
-9.19068770817
-9.13237658287
-9.0693888932
-9.00164476617
-8.9290668346
-8.85157984461
-8.76911567752
-8.68160927544
-8.58899950494
-8.49123263346
-8.38826051457
-8.28004661703
-8.16655864534
-8.04778029718
-7.92371172626
-7.79436747973
-7.6597898284
-7.52004637094
-7.37524433068
-7.22552920389
-7.07108741246
-6.91216175288
-6.74904205707
-6.58207217151
-6.41170351858
-1.98954068085
-1.95844273109
-1.9736669202
-2.02533349799
-2.09939156867
-2.18759225415
-2.28299601837
-2.38026503534
-2.47617726828
-2.56918800343
-2.65882328583
-2.74521386609
-2.82877825994
-2.9100268376
-2.9894553154
-3.06749663896
-3.14450578202
-3.22076191658
-3.29647822079
-3.37181339061
-3.44688315257
-3.52177035926
-3.59653330723
-3.67121231653
-3.74583523666
-3.82041978803
-3.89497800453
-3.96951712491
-4.04404127076
-4.11855266461
-4.1930522586
-4.26754001168
-4.3420151623
-4.4164765465
-4.49092269982
-4.56535195333
-4.63976265405
-4.71415306989
-4.78852127597
-4.86286508767
-4.93718203683
-5.01146943477
-5.08572465353
-5.15994511077
-5.23412801618
-5.30826997383
-5.38236707863
-5.45641533433
-5.5304107749
-5.60434925493
-5.67822614057
-5.75203640097
-5.82577463243
-5.89943495577
-5.97301102989
-6.04649614204
-6.11988325007
-6.1931648738
-6.26633297846
-6.33937891381
-6.41229337481
-6.48506641544
-6.55768742584
-6.63014513042
-6.70242769311
-6.77452268506
-6.84641682219
-6.91809575597
-6.98954421981
-7.06074632241
-7.13168544194
-7.20234379958
-7.2727022713
-7.34274053314
-7.41243723771
-7.48176997888
-7.55071535525
-7.61924907697
-7.68734567751
-7.75497797082
-7.82211696503
-7.88873235697
-7.95479272192
-8.0202651087
-8.08511473242
-8.14930514195
-8.2127985442
-8.2755557007
-8.33753553846
-8.39869496303
-8.45898907011
-8.51837136204
-8.57679347609
-8.63420494966
-8.69055338461
-8.74578470976
-8.79984314101
-8.8526706845
-8.90420690246
-8.95438936103
-9.00315421815
-9.05043588023
-9.09616632133
-9.14027518276
-9.18269063039
-9.22333887436
-9.26214375253
-9.29902730393
-9.33390985449
-9.3667101643
-9.39734477608
-9.42572835396
-9.45177474849
-9.47539640322
-9.49650395167
-9.51500615366
-9.5308111977
-9.5438257798
-9.5539548011
-9.56110318063
-9.5651752774
-9.56607398996
-9.56370164456
-9.55796074837
-9.54875357371
-9.53598221275
-9.51954904993
-9.49935708683
-9.47530997416
-9.44731172982
-9.4152669047
-9.37908197867
-9.33866490617
-9.29392521145
-9.24477515589
-9.19112848902
-9.13290182396
-9.07001487558
-9.00239052445
-8.92995614709
-8.85264065522
-8.77037987161
-8.68311545695
-8.59079382204
-8.4933693962
-8.39080308684
-8.2830698654
-8.17015091878
-8.05204347425
-7.92876469035
-7.80034772671
-7.66685667618
-7.52838133067
-7.38505336
-7.23705236358
-7.08460276944
-6.92799521128
-6.76759454876
-6.60384851652
-6.43733485494
-1.9702917775
-1.93872660717
-1.95837236177
-2.01581644845
-2.09483023494
-2.18660875414
-2.28422614936
-2.38261397769
-2.47889588603
-2.57182984344
-2.66116224685
-2.74716606826
-2.83034183712
-2.91124103612
-2.99037531147
-3.06817948138
-3.14500354493
-3.22111889257
-3.29673034914
-3.37198886102
-3.44700346411
-3.52185151085
-3.596586933
-3.67124665267
-3.74585700958
-3.82043306486
-3.89498572335
-3.96952129674
-4.04404322446
-4.11855326138
-4.1930521239
-4.2675396024
-4.34201470135
-4.41647604317
-4.49092215331
-4.56535142993
-4.63976222932
-4.71415282876
-4.78852122058
-4.862865106
-4.9371819923
-5.01146931925
-5.08572454577
-5.15994508474
-5.23412807957
-5.3082701016
-5.38236722674
-5.45641543586
-5.53041078361
-5.60434920618
-5.67822608652
-5.75203633755
-5.82577455609
-5.89943491943
-5.97301111228
-6.04649636035
-6.11988353759
-6.19316513157
-6.2663331656
-6.33937907169
-6.4122935379
-6.48506652481
-6.5576873958
-6.6301449772
-6.7024275302
-6.77452257186
-6.84641667616
-6.91809547693
-6.98954381027
-7.06074588048
-7.13168508439
-7.20234358895
-7.27270213942
-7.3427402672
-7.4124366392
-7.48176908133
-7.55071439517
-7.61924823327
-7.68734490751
-7.75497713496
-7.82211602279
-7.88873136108
-7.95479166102
-8.02026387252
-8.08511323574
-8.14930338562
-8.21279657433
-8.27555355337
-8.33753312663
-8.39869221043
-8.45898602375
-8.51836809249
-8.57678997303
-8.63420124293
-8.69054954954
-8.74578071199
-8.799838791
-8.85266593257
-8.90420189397
-8.95438423373
-9.00314888262
-9.05043013372
-9.09616009987
-9.14026872064
-9.18268401106
-9.22333203262
-9.26213680125
-9.2990201408
-9.33390232504
-9.3667023354
-9.39733693452
-9.42572094361
-9.45176778375
-9.47539000862
-9.49649839442
-9.51500165957
-9.53080771261
-9.54382376316
-9.55395526384
-9.56110676692
-9.56518255043
-9.56608593302
-9.56371935121
-9.55798526673
-9.54878634952
-9.53602539466
-9.51960524164
-9.49942883203
-9.4754002191
-9.44742462213
-9.41540734463
-9.37925571728
-9.33887887096
-9.29418726257
-9.24509499446
-9.19151814157
-9.13337539665
-9.07058875669
-9.00308360263
-8.93079148543
-8.85364658142
-8.77158887347
-8.68456559073
-8.59253104144
-8.49544799847
-8.39328599964
-8.28603086867
-8.17367770596
-8.05623724483
-7.93374362601
-7.80624783723
-7.67383630328
-7.53662406392
-7.3947673165
-7.24847909744
-7.09802582666
-6.94374280331
-6.78605384724
-6.62547764064
-6.46265975133
-1.9280586638
-1.89700732132
-1.92693940444
-1.99670975205
-2.0858781102
-2.18475523048
-2.28663444537
-2.38710690145
-2.48403378066
-2.57678018198
-2.66551722044
-2.75078347609
-2.83322846244
-2.91347622649
-2.99206515032
-3.0694316575
-3.14591525475
-3.22177218
-3.29719142391
-3.3723094654
-3.44722301203
-3.52199938399
-3.59668476888
-3.67131074397
-3.74589672214
-3.82045710241
-3.89499964868
-3.96952875279
-4.04404665104
-4.11855427868
-4.19305179476
-4.26753864947
-4.34201356709
-4.41647491459