/*--------------------------------*- C++ -*----------------------------------*\
| =========                 |                                                 |
| \\      /  F ield         | OpenFOAM: The Open Source CFD Toolbox           |
|  \\    /   O peration     | Version:  2106                                  |
|   \\  /    A nd           | Website:  www.openfoam.com                      |
|    \\/     M anipulation  |                                                 |
\*---------------------------------------------------------------------------*/
FoamFile
{
    version     2.0;
    format      ascii;
    arch        "LSB;label=32;scalar=64";
    class       surfaceScalarField;
    location    "0.38";
    object      phi;
}
// * * * * * * * * * * * * * * * * * * * * * * * * * * * * * * * * * * * * * //

dimensions      [0 3 -1 0 0 0 0];

oriented        oriented;

internalField   nonuniform List<scalar> 
22100
(
3.38461202989e-05
1.61538797216e-05
2.24572096588e-05
1.13889105199e-05
1.62585526396e-05
6.19865694277e-06
1.27977755635e-05
3.46077702743e-06
1.08046416563e-05
1.99313389568e-06
9.6045886724e-06
1.20005301911e-06
8.85132102471e-06
7.53267733631e-07
8.36435238105e-06
4.86968778077e-07
8.04433471163e-06
3.20017844584e-07
7.83284014616e-06
2.11494770945e-07
7.69339720813e-06
1.39443164245e-07
7.60224052271e-06
9.11569211083e-08
7.54347790375e-06
5.87628546226e-08
7.50634110735e-06
3.713702664e-08
7.48350167471e-06
2.28396557069e-08
7.46998089423e-06
1.3520995412e-08
7.46241628922e-06
7.56480924e-09
7.45854826491e-06
3.86822167159e-09
7.45682929019e-06
1.71917803557e-09
7.45642267378e-06
4.06821076157e-10
7.45677252777e-06
-3.49644979918e-10
7.45745874753e-06
-6.86008406226e-10
7.45821715375e-06
-7.58170964154e-10
7.45894252741e-06
-7.25131258536e-10
7.4595869073e-06
-6.44137796886e-10
7.46013090377e-06
-5.43764035392e-10
7.46057306709e-06
-4.41949922709e-10
7.46092185223e-06
-3.48598957426e-10
7.46119016559e-06
-2.68165910112e-10
7.46139209946e-06
-2.0183100104e-10
7.46154104578e-06
-1.48889921129e-10
7.46164869056e-06
-1.07639987305e-10
7.46172479626e-06
-7.61244401401e-11
7.46177747267e-06
-5.27072271684e-11
7.46181071456e-06
-3.3234369155e-11
7.46182950899e-06
-1.87912714803e-11
7.46183860162e-06
-9.1101320332e-12
7.46184146701e-06
-2.83849919393e-12
7.46184003503e-06
1.48534786923e-12
7.46183543364e-06
4.67942701222e-12
7.46182859818e-06
6.94492409246e-12
7.46182013415e-06
8.601861703e-12
7.46181039975e-06
9.90064490995e-12
7.46179957696e-06
1.10300036281e-11
7.46178767329e-06
1.21372043286e-11
7.46177455265e-06
1.33629184026e-11
7.46176000741e-06
1.48101134138e-11
7.46174371647e-06
1.65570445524e-11
7.46172525984e-06
1.87134830459e-11
7.46170409522e-06
2.14053227381e-11
7.46167961233e-06
2.47019297761e-11
7.46165112089e-06
2.8693265795e-11
7.46161784425e-06
3.34609257463e-11
7.46157893147e-06
3.9075935419e-11
7.46153352002e-06
4.55637307473e-11
7.46148079404e-06
5.28751553153e-11
7.46142009729e-06
6.08331186631e-11
7.46135133972e-06
6.88994872699e-11
7.46127523981e-06
7.6252156403e-11
7.46119425359e-06
8.11089100329e-11
7.46111479317e-06
7.95610312043e-11
7.46104891222e-06
6.60139437258e-11
7.46100423521e-06
4.4826690122e-11
7.46100008855e-06
4.23505845895e-12
7.46107255182e-06
-7.2325859218e-11
7.46127981235e-06
-2.07196084895e-10
7.46171638387e-06
-4.3653761167e-10
7.46253234145e-06
-8.15946202712e-10
7.463962933e-06
-1.43057524485e-09
7.4663635882e-06
-2.40061954873e-09
7.47018352501e-06
-3.81989794365e-09
7.47663434561e-06
-6.45075958008e-09
7.48740650484e-06
-1.07720751562e-08
7.50558204162e-06
-1.81754199107e-08
7.53876673915e-06
-3.31845323132e-08
7.60797752605e-06
-6.92105629973e-08
7.7746271845e-06
-1.6664938419e-07
8.22950218688e-06
-4.54874745008e-07
9.69701368628e-06
-1.46751135069e-06
-5.45095502469e-06
1.51479691053e-05
5.0217594867e-05
1.59362847644e-05
4.42441115931e-05
1.73623936475e-05
3.77795014713e-05
1.26632669937e-05
3.26461440243e-05
8.59413447112e-06
2.89380919908e-05
5.70118600705e-06
2.63596217359e-05
3.77852343766e-06
2.4587517536e-05
2.52537217721e-06
2.33734757519e-05
1.70101087461e-06
2.25435270311e-05
1.14996693106e-06
2.19782187126e-05
7.76803489312e-07
2.15955165732e-05
5.22145722331e-07
2.13387404022e-05
3.47933516283e-07
2.11684992624e-05
2.29004412217e-07
2.10573420122e-05
1.48294680271e-07
2.09861544296e-05
9.40276271652e-08
2.0941682358e-05
5.79934492459e-08
2.0914800829e-05
3.44467172717e-08
2.08993019935e-05
1.93674315306e-08
2.08910784772e-05
9.94307112004e-09
2.08872784497e-05
4.20724327142e-09
2.08862096683e-05
7.19537311246e-10
2.08864556278e-05
-9.31536159628e-10
2.08873272918e-05
-1.6294170147e-09
2.08884670287e-05
-1.86444676669e-09
2.0889640595e-05
-1.81730120533e-09
2.08907238172e-05
-1.62662148647e-09
2.08916616274e-05
-1.3794544177e-09
2.08924393511e-05
-1.12608409256e-09
2.08930647502e-05
-8.93399778521e-10
2.08935570422e-05
-6.94034718052e-10
2.08939410434e-05
-5.32860779671e-10
2.08942426664e-05
-4.09224975343e-10
2.08944537473e-05
-2.87211093349e-10
2.08946009083e-05
-1.99939988281e-10
2.0894701384e-05
-1.33756504871e-10
2.08947669046e-05
-8.42998425026e-11
2.08948076196e-05
-4.97832941778e-11
2.08948317055e-05
-2.6840131234e-11
2.08948439826e-05
-1.0636531977e-11
2.08948473745e-05
1.49172895378e-12
2.08948443001e-05
1.02775085026e-11
2.08948364349e-05
1.6792218395e-11
2.08948249029e-05
2.18010780632e-11
2.08948104238e-05
2.59230225183e-11
2.0894793383e-05
2.96484541343e-11
2.08947738789e-05
3.33319344957e-11
2.08947519217e-05
3.72332603365e-11
2.08947273877e-05
4.15468227979e-11
2.08947000715e-05
4.64539790399e-11
2.08946697059e-05
5.21655899233e-11
2.08946360822e-05
5.86858912691e-11
2.08945990685e-05
6.60319859589e-11
2.08945587e-05
7.41388646471e-11
2.08945153036e-05
8.27697632429e-11
2.08944697517e-05
9.14004041065e-11
2.08944238693e-05
9.90604906752e-11
2.08943810102e-05
1.03995005389e-10
2.08943471557e-05
1.0301428305e-10
2.08943318075e-05
9.18588143927e-11
2.08943503191e-05
6.28854007465e-11
2.08944297738e-05
3.25981507542e-13
2.08946187462e-05
-1.2279724124e-10
2.08949858674e-05
-3.22050009578e-10
2.08956498883e-05
-6.59660310862e-10
2.08967177654e-05
-1.14011785357e-09
2.08983676055e-05
-1.85694117303e-09
2.09009571724e-05
-3.02605902885e-09
2.09050343715e-05
-4.89308145711e-09
2.09114683135e-05
-7.86444924652e-09
2.09216825551e-05
-1.2614768242e-08
2.09381670422e-05
-2.03042648205e-08
2.09650661715e-05
-3.33497169305e-08
2.10093189338e-05
-5.50245916874e-08
2.10840957194e-05
-9.29518954848e-08
2.12153179809e-05
-1.64406412183e-07
2.14558839612e-05
-3.09776082607e-07
2.19136292181e-05
-6.24394072589e-07
2.28004240796e-05
-1.34166879282e-06
2.44440062507e-05
-3.11109257565e-06
-7.03690151332e-06
2.60299509913e-05
5.35171053498e-05
1.24191793417e-05
5.29349683248e-05
1.79445305436e-05
4.9653840169e-05
1.59443950889e-05
4.58401815732e-05
1.2407793063e-05
4.24400926865e-05
9.10127495991e-06
3.97291729024e-05
6.4894433639e-06
3.76873066637e-05
4.56723862935e-06
3.61976641312e-05
3.19065368196e-06
3.51326138374e-05
2.21501754782e-06
3.43823691552e-05
1.52704852467e-06
3.3860628557e-05
1.04388668926e-06
3.35023487012e-05
7.06213745557e-07
3.32596041742e-05
4.71749308428e-07
3.30975942237e-05
3.10304987936e-07
3.29913384748e-05
2.00283715463e-07
3.29230968899e-05
1.26235357899e-07
3.28804092007e-05
7.71347237499e-08
3.28546242961e-05
4.51526572456e-08
3.28397974064e-05
2.47702832574e-08
3.28318710933e-05
1.21338773051e-08
3.28280018395e-05
4.58914904845e-09
3.28270034003e-05
6.72517801503e-11
3.28271843958e-05
-1.81005475563e-09
3.28280330388e-05
-2.71273956721e-09
3.28291490435e-05
-2.93296553998e-09
3.28302965129e-05
-2.77377647897e-09
3.28313526827e-05
-2.43535384958e-09
3.2832263238e-05
-2.03642510569e-09
3.28330133248e-05
-1.64333559906e-09
3.28336090131e-05
-1.28964120303e-09
3.28340652465e-05
-9.8903493682e-10
3.28344002135e-05
-7.44202493452e-10
3.28346665891e-05
-5.53615951113e-10
3.28348829327e-05
-4.16315493674e-10
3.28350300451e-05
-2.80871289255e-10
3.28351292362e-05
-1.83437847081e-10
3.28351951085e-05
-1.15554232138e-10
3.28352370433e-05
-6.86704641895e-11
3.28352619432e-05
-3.53897149888e-11
3.28352737715e-05
-1.01412163437e-11
3.2835276088e-05
8.19406170736e-12
3.28352714066e-05
2.17675214927e-11
3.28352615323e-05
3.20105186878e-11
3.28352476842e-05
4.01208727426e-11
3.28352306487e-05
4.70735250307e-11
3.28352108576e-05
5.35156221062e-11
3.2835188598e-05
5.98740194519e-11
3.28351640946e-05
6.64279353599e-11
3.28351374728e-05
7.34250867586e-11
3.28351087271e-05
8.1237180169e-11
3.28350781835e-05
8.9552316939e-11
3.2835046457e-05
9.80790906652e-11
3.28350146164e-05
1.06307806662e-10
3.28349844792e-05
1.13243427249e-10
3.28349590561e-05
1.17152560986e-10
3.28349430168e-05
1.15444269862e-10
3.2834943469e-05
1.03901891409e-10
3.28349719589e-05
7.48313676983e-11
3.28350458327e-05
1.82314385071e-11
3.28351949619e-05
-8.6047538587e-11
3.28354708527e-05
-2.75358642427e-10
3.28359628244e-05
-6.14675138865e-10
3.28366828283e-05
-1.04193809169e-09
3.28377283881e-05
-1.70514957435e-09
3.28393588994e-05
-2.77050163085e-09
3.28419487598e-05
-4.44670190556e-09
3.28460020906e-05
-7.07931204336e-09
3.28523333855e-05
-1.12242965046e-08
3.28622554893e-05
-1.77864812584e-08
3.28779323728e-05
-2.8291579734e-08
3.29030235364e-05
-4.53953235624e-08
3.29428780684e-05
-7.32040976599e-08
3.30073224384e-05
-1.19468744485e-07
3.3113332535e-05
-1.98961707919e-07
3.32899101166e-05
-3.40983644187e-07
3.35852395148e-05
-6.05105103648e-07
3.4070367528e-05
-1.10952175551e-06
3.48113803934e-05
-2.08268110315e-06
3.56720281778e-05
-3.9717380529e-06
-7.10484913574e-06
3.5739981359e-05
5.35105664739e-05
8.9086128014e-06
5.55742222331e-05
1.58808746561e-05
5.52424825755e-05
1.62761346868e-05
5.35977861414e-05
1.40524894929e-05
5.15418480589e-05
1.1157213108e-05
4.95802805315e-05
8.45101103236e-06
4.79243518104e-05
6.22316756294e-06
4.66181402898e-05
4.49686547611e-06
4.56304678834e-05
3.20269027551e-06
4.49051193571e-05
2.25239740277e-06
4.43840926009e-05
1.56491381104e-06
4.40166968801e-05
1.0736098328e-06
4.37619708005e-05
7.26475747265e-07
4.3588272585e-05
4.84003551034e-07
4.34718735873e-05
3.16683043911e-07
4.33953638469e-05
2.02745412551e-07
4.33461938758e-05
1.26305001925e-07
4.33154565533e-05
7.58902831491e-08
4.32969204623e-05
4.33066754351e-08
4.32862946674e-05
2.27599818181e-08
4.32806921035e-05
1.01920246932e-08
4.32778847306e-05
2.87495269143e-09
4.3277057238e-05
-9.82232751127e-10
4.32772754566e-05
-2.93062513867e-09
4.32779633327e-05
-3.62052074461e-09
4.32788267286e-05
-3.6368740006e-09
4.32796998579e-05
-3.30822382674e-09
4.32804975925e-05
-2.83394570803e-09
4.32811835818e-05
-2.32915044414e-09
4.32817496065e-05
-1.85553887293e-09
4.32822024878e-05
-1.44185746341e-09
4.32825549379e-05
-1.09665368442e-09
4.32828167251e-05
-8.15321776066e-10
4.32829921226e-05
-5.91636580486e-10
4.32831252527e-05
-4.13970831462e-10
4.3283210723e-05
-2.68807661458e-10
4.32832648879e-05
-1.6965788481e-10
4.32833048935e-05
-1.08565775898e-10
4.32833295157e-05
-5.98807778655e-11
4.32833417882e-05
-2.22361392862e-11
4.32833451271e-05
5.07316729209e-12
4.32833415115e-05
2.56538625036e-11
4.32833326267e-05
4.12039105827e-11
4.32833196195e-05
5.3444959453e-11
4.32833031885e-05
6.38646338552e-11
4.32832837582e-05
7.3323730123e-11
4.32832616409e-05
8.2351624942e-11
4.32832371451e-05
9.12781956556e-11
4.3283210626e-05
1.00282446972e-10
4.32831826885e-05
1.09485423727e-10
4.32831539862e-05
1.18539909387e-10
4.32831255025e-05
1.26833673657e-10
4.32830987314e-05
1.33356065191e-10
4.32830758014e-05
1.36470090662e-10
4.32830596449e-05
1.33600492635e-10
4.32830547797e-05
1.20570407514e-10
4.32830692609e-05
8.96462015303e-11
4.32831151898e-05
2.9174348399e-11
4.3283211903e-05
-7.8213133468e-11
4.32833752958e-05
-2.49290120535e-10
4.3283621272e-05
-5.21139845579e-10
4.32840680212e-05
-1.0612884864e-09
4.32848449163e-05
-1.81866717765e-09
4.32861041083e-05
-2.96419822188e-09
4.3288053791e-05
-4.7200793642e-09
4.3291044286e-05
-7.43707982488e-09
4.32956353307e-05
-1.16702577726e-08
4.33027055912e-05
-1.82944714175e-08
4.33136370671e-05
-2.87178894734e-08
4.33305872672e-05
-4.52416947782e-08
4.33568643892e-05
-7.16723289945e-08
4.33980366643e-05
-1.14376220618e-07
4.34629513158e-05
-1.84383182234e-07
4.35653246558e-05
-3.01334758025e-07
4.37250970858e-05
-5.00755698302e-07
4.39668405727e-05
-8.46848174207e-07
4.43071819276e-05
-1.44986288307e-06
4.47073658993e-05
-2.48286537886e-06
4.49264299832e-05
-4.19080241857e-06
-6.575382179e-06
4.4396966133e-05
5.27351380019e-05
6.17347473358e-06
5.57309344053e-05
1.28850781244e-05
5.73114742776e-05
1.46955947575e-05
5.76109918865e-05
1.37529718846e-05
5.71335229189e-05
1.16346821479e-05
5.63194687031e-05
9.26506539703e-06
5.54489889352e-05
7.09364755247e-06
5.46629788512e-05
5.28287584338e-06
5.40136838164e-05
3.85198564091e-06
5.35061530433e-05
2.75992853712e-06
5.3124257704e-05
1.94680952506e-06
5.2844988747e-05
1.35287916263e-06
5.26454430857e-05
9.26021769699e-07
5.2505719416e-05
6.23727568082e-07
5.24097252038e-05
4.12677585346e-07
5.23450197239e-05
2.67451197025e-07
5.23022824068e-05
1.69042608223e-07
5.22746957272e-05
1.034772469e-07
5.2257371637e-05
6.06310455904e-08
5.22468633733e-05
3.32685269123e-08
5.22407640517e-05
1.62916347873e-08
5.22374555052e-05
6.18379696915e-09
5.22359571083e-05
5.16475265021e-10
5.22354493787e-05
-2.4225825512e-09
5.22355145026e-05
-3.68534167839e-09
5.2235860098e-05
-3.98218456906e-09
5.22363144412e-05
-3.76231430867e-09
5.22367808853e-05
-3.30018306292e-09
5.22372083288e-05
-2.75642898682e-09
5.22375740508e-05
-2.2211266302e-09
5.22378713458e-05
-1.73905211879e-09
5.22381030192e-05
-1.32824445275e-09
5.22382793597e-05
-9.91614938687e-10
5.2238412294e-05
-7.24517532527e-10
5.22385127504e-05
-5.14371791698e-10
5.22385975006e-05
-3.53534635523e-10
5.22386631304e-05
-2.35189606325e-10
5.22387056005e-05
-1.50942530673e-10
5.22387385365e-05
-9.26179637679e-11
5.22387541701e-05
-3.76592910492e-11
5.2238759655e-05
-1.81197168187e-13
5.22387575792e-05
2.79885804395e-11
5.22387498942e-05
4.91862491527e-11
5.22387379362e-05
6.57294098776e-11
5.22387225828e-05
7.95957359766e-11
5.22387043697e-05
9.19128207321e-11
5.22386837759e-05
1.0331020333e-10
5.22386614451e-05
1.13967267523e-10
5.22386386338e-05
1.23385202068e-10
5.22386131362e-05
1.35264388902e-10
5.22385867409e-05
1.45212790814e-10
5.22385605987e-05
1.53248721991e-10
5.22385363285e-05
1.57902080775e-10
5.22385166132e-05
1.56488079129e-10
5.22385071151e-05
1.43388134546e-10
5.22385166513e-05
1.1132208482e-10
5.22385487943e-05
5.77183394035e-11
5.22386268052e-05
-4.86332185209e-11
5.2238748249e-05
-1.99330371894e-10
5.22389453119e-05
-4.46103389267e-10
5.22392846032e-05
-8.60182393322e-10
5.22398052037e-05
-1.58171884311e-09
5.22405816072e-05
-2.59488240351e-09
5.2241746647e-05
-4.12908468416e-09
5.22435037531e-05
-6.47707314405e-09
5.22461543371e-05
-1.00875561052e-08
5.22501504218e-05
-1.56662492854e-08
5.22561833005e-05
-2.4327264922e-08
5.22653118841e-05
-3.78464047829e-08
5.22791535419e-05
-5.90832689727e-08
5.23001658294e-05
-9.26844896224e-08
5.23320637719e-05
-1.46273999153e-07
5.23801894698e-05
-2.3250866357e-07
5.2451466444e-05
-3.72611441047e-07
5.25527539343e-05
-6.02042800811e-07
5.2684590785e-05
-9.7868452117e-07
5.28247449785e-05
-1.59001651116e-06
5.28917304e-05
-2.54985051846e-06
5.26731076513e-05
-3.97218017042e-06
-5.76650361968e-06
5.18642307547e-05
5.19834864631e-05
4.18998820655e-06
5.50586639172e-05
9.80990054568e-06
5.7638613174e-05
1.21156454482e-05
5.9325903206e-05
1.20656818599e-05
6.02280154021e-05
1.07325700322e-05
6.05929268217e-05
8.90015413585e-06
6.06482840434e-05
7.03829056335e-06
6.05531899376e-05
5.37797024424e-06
6.04029557495e-05
4.00222016999e-06
6.02479156482e-05
2.91496900909e-06
6.01107905275e-05
2.08393502941e-06
5.99990314023e-05
1.46463866773e-06
5.99125166013e-05
1.01253693319e-06
5.98479250527e-05
6.88319457487e-07
5.98010217953e-05
4.59581162468e-07
5.97677374148e-05
3.00735870657e-07
5.97445962927e-05
1.92183999079e-07
5.97288179561e-05
1.1925584096e-07
5.97182699996e-05
7.11792545911e-08
5.97113639947e-05
4.01747854426e-08
5.97069448351e-05
2.07110508828e-08
5.97042111418e-05
8.91775969185e-09
5.97026023287e-05
2.12556958439e-09
5.97016980331e-05
-1.51799732675e-09
5.97012399821e-05
-3.22700648121e-09
5.97010507097e-05
-3.79264331292e-09
5.97010146748e-05
-3.72603235092e-09
5.97010592069e-05
-3.34450377437e-09
5.97011405764e-05
-2.83762797755e-09
5.9701233116e-05
-2.31352473162e-09
5.97013229576e-05
-1.82876796647e-09
5.97014034682e-05
-1.40867733197e-09
5.97014732397e-05
-1.06131849284e-09
5.97015329007e-05
-7.84087352561e-10
5.97015832348e-05
-5.64618943349e-10
5.97016231577e-05
-3.93331263539e-10
5.9701651071e-05
-2.62953479389e-10
5.9701666516e-05
-1.66159457794e-10
5.97016651112e-05
-9.10131727673e-11
5.97016573156e-05
-2.96576796824e-11
5.97016510229e-05
6.3466708642e-12
5.97016421614e-05
3.70995806668e-11
5.97016320749e-05
5.96105254377e-11
5.97016208436e-05
7.73268088405e-11
5.97016074188e-05
9.33373887104e-11
5.97015916642e-05
1.08021400765e-10
5.97015736387e-05
1.21694421569e-10
5.97015533769e-05
1.34553141883e-10
5.97015305691e-05
1.46549854093e-10
5.97015087308e-05
1.57459734851e-10
5.97014877641e-05
1.66530725508e-10
5.97014689126e-05
1.72449029258e-10
5.97014538331e-05
1.73320752779e-10
5.97014440409e-05
1.66613475962e-10
5.97014381461e-05
1.49630591062e-10
5.97014299506e-05
1.19625554794e-10
5.97014360753e-05
5.20855381825e-11
5.97014484692e-05
-6.08522109909e-11
5.9701535321e-05
-2.85756389365e-10
5.97017263559e-05
-6.36781251503e-10
5.97020279194e-05
-1.16152748312e-09
5.97024170898e-05
-1.97068435401e-09
5.97029983849e-05
-3.1759517116e-09
5.97038541797e-05
-4.98468395333e-09
5.97050985474e-05
-7.72129897761e-09
5.97068966519e-05
-1.18855493971e-08
5.9709486643e-05
-1.82561533237e-08
5.97132126274e-05
-2.80531663914e-08
5.97185643648e-05
-4.31980640681e-08
5.97262225607e-05
-6.67413666556e-08
5.97370884692e-05
-1.03550250643e-07
5.97522241683e-05
-1.61409509192e-07
5.97724665442e-05
-2.52750805711e-07
5.97972228297e-05
-3.97367429178e-07
5.9821335138e-05
-6.26154751803e-07
5.98279281543e-05
-9.8527713046e-07
5.97749651506e-05
-1.53705299424e-06
5.95745393269e-05
-2.34942415171e-06
5.90688631781e-05
-3.46650430778e-06
-4.79544000795e-06
5.80978004391e-05
5.14373053616e-05
2.7526827834e-06
5.42658205082e-05
6.98138527973e-06
5.72496431764e-05
9.1318227323e-06
5.97900275907e-05
9.52529745997e-06
6.17201282145e-05
8.80246949727e-06
6.30883033687e-05
7.53197915004e-06
6.40167172063e-05
6.10987696944e-06
6.46292373407e-05
4.7654504176e-06
6.50258046749e-05
3.60565318918e-06
6.52790796475e-05
2.66169441755e-06
6.5438975098e-05
1.92403997108e-06
6.55386923212e-05
1.36492183202e-06
6.55999312316e-05
9.51298390519e-07
6.56367463931e-05
6.51504635589e-07
6.56581978126e-05
4.38130056037e-07
6.56701063274e-05
2.88827640736e-07
6.5676195829e-05
1.86094750559e-07
6.56788323833e-05
1.1661952126e-07
6.56795030617e-05
7.05088004513e-08
6.56791270974e-05
4.05509710188e-08
6.56782599507e-05
2.15784216909e-08
6.56772292978e-05
9.94864534259e-09
6.56762203296e-05
3.13478211897e-09
6.56753113563e-05
-6.0876926806e-10
6.56745429801e-05
-2.45838046336e-09
6.56739149571e-05
-3.16436438806e-09
6.56734163988e-05
-3.22723286363e-09
6.56730298362e-05
-2.95771703233e-09
6.56727362691e-05
-2.54386773482e-09
6.56725175286e-05
-2.09462496881e-09
6.56723575175e-05
-1.66860198739e-09
6.56722425513e-05
-1.29357178562e-09
6.56721604953e-05
-9.79131640222e-10
6.56721007554e-05
-7.24192616377e-10
6.56720575478e-05
-5.21243494689e-10
6.56720266471e-05
-3.62240507638e-10
6.56720019213e-05
-2.38026157035e-10
6.567198068e-05
-1.4473454611e-10
6.56719660135e-05
-7.61703181096e-11
6.5671964556e-05
-2.79868394744e-11
6.56719633145e-05
7.84195679401e-12
6.56719562648e-05
4.44207771345e-11
6.56719466114e-05
6.95531150857e-11
6.56719345141e-05
8.96837657936e-11
6.56719208373e-05
1.07281023895e-10
6.5671905668e-05
1.23477123172e-10
6.56718888558e-05
1.38810000438e-10
6.56718703304e-05
1.53389748589e-10
6.56718505527e-05
1.66619369484e-10
6.56718316315e-05
1.7665467453e-10
6.56718125322e-05
1.85908832426e-10
6.56717937666e-05
1.91510216046e-10
6.56717764686e-05
1.90905461422e-10
6.56717625614e-05
1.80791343657e-10
6.56717559026e-05
1.56458840094e-10
6.56717639385e-05
1.12155613506e-10
6.56717706541e-05
4.56808950954e-11
6.56718058756e-05
-9.57304294628e-11
6.56718743643e-05
-3.53844750214e-10
6.56719742375e-05
-7.36195088722e-10
6.56721263507e-05
-1.31335984709e-09
6.5672337867e-05
-2.18194518275e-09
6.56726254389e-05
-3.46329481976e-09
6.56730057279e-05
-5.36477044914e-09
6.56734898263e-05
-8.20523189981e-09
6.56740755866e-05
-1.24711733079e-08
6.56747330943e-05
-1.89135547785e-08
6.56753771254e-05
-2.86970967587e-08
6.5675807212e-05
-4.36280479942e-08
6.56755964151e-05
-6.65304443104e-08
6.56738763169e-05
-1.01829978703e-07
6.56689144265e-05
-1.56447398275e-07
6.56571786769e-05
-2.41014790839e-07
6.56315439833e-05
-3.71732410658e-07
6.55778656217e-05
-5.72476014326e-07
6.54689225113e-05
-8.76333650056e-07
6.52555700153e-05
-1.3237001043e-06
6.48578040161e-05
-1.95165756944e-06
6.41632282011e-05
-2.77192849912e-06
-3.71397211801e-06
6.30817608288e-05
5.10850423501e-05
1.66764037511e-06
5.3611844491e-05
4.45458302729e-06
5.66873164171e-05
6.056350765e-06
5.96894464956e-05
6.52316740438e-06
6.22997272496e-05
6.19218884298e-06
6.44136890385e-05
5.41801754098e-06
6.60471854849e-05
4.4763807788e-06
6.72686174035e-05
3.54401882069e-06
6.81598968648e-05
2.71437409596e-06
6.87977639255e-05
2.02382775137e-06
6.92467487869e-05
1.47505551264e-06
6.9557968115e-05
1.05370290006e-06
6.9770435283e-05
7.38831596586e-07
6.99131788301e-05
5.08761427905e-07
7.00073904208e-05
3.43918769864e-07
7.00683004706e-05
2.27917864398e-07
7.01067029815e-05
1.47692475275e-07
7.01301457609e-05
9.31769497746e-08
7.01438353548e-05
5.68193977133e-08
7.01513119197e-05
3.30745889798e-08
7.01549448603e-05
1.7945664793e-08
7.01562931092e-05
8.60058808308e-09
7.01563654682e-05
3.06262350695e-09
7.01557739324e-05
-1.70246290412e-11
7.01549135626e-05
-1.59777319811e-09
7.01539904692e-05
-2.24103713944e-09
7.01531223554e-05
-2.358886916e-09
7.01523628761e-05
-2.19800842593e-09
7.01517292263e-05
-1.91000195276e-09
7.0151218546e-05
-1.58374485153e-09
7.01508179119e-05
-1.26776934874e-09
7.01505103737e-05
-9.85827948598e-10
7.01502782851e-05
-7.46841728949e-10
7.0150105494e-05
-5.51192822457e-10
7.01499789995e-05
-3.94542460155e-10
7.0149888148e-05
-2.71190123365e-10
7.01498258418e-05
-1.75510550667e-10
7.01497846077e-05
-1.0328937063e-10
7.01497564311e-05
-4.77577783625e-11
7.01497268522e-05
1.83951400267e-12
7.01497037973e-05
3.1127043529e-11
7.01496910625e-05
5.73777666562e-11
7.0149680913e-05
7.99145437512e-11
7.01496714026e-05
9.94466062842e-11
7.01496617409e-05
1.17195225034e-10
7.0149651564e-05
1.33903351456e-10
7.01496407341e-05
1.4987728374e-10
7.01496292886e-05
1.6506447544e-10
7.01496170738e-05
1.79063555933e-10
7.014960269e-05
1.91275919198e-10
7.01495880644e-05
2.00790852396e-10
7.01495740479e-05
2.05815548915e-10
7.01495613926e-05
2.0388547744e-10
7.01495506433e-05
1.91881508159e-10
7.01495414332e-05
1.66130801915e-10
7.0149530758e-05
1.23124273658e-10
7.01495250435e-05
5.21615369259e-11
7.01495140613e-05
-8.48128924486e-11
7.01495262105e-05
-3.65787630286e-10
7.01495502353e-05
-7.59884951777e-10
7.01495744621e-05
-1.33728681893e-09
7.01495775905e-05
-2.18478037793e-09
7.01495328356e-05
-3.41831710936e-09
7.01493870291e-05
-5.21877935267e-09
7.01490413406e-05
-7.85937459313e-09
7.01483207803e-05
-1.1750453912e-08
7.01469239015e-05
-1.7516542987e-08
7.01443395377e-05
-2.61126048932e-08
7.01396940732e-05
-3.89824484779e-08
7.01315071275e-05
-5.83433468581e-08
7.01172903184e-05
-8.76129766446e-08
7.00928912126e-05
-1.3204804859e-07
7.00512240062e-05
-1.99347288807e-07
6.99803212799e-05
-3.0082933223e-07
6.98602280727e-05
-4.5238239953e-07
6.96585182313e-05
-6.74623406806e-07
6.93253090862e-05
-9.90490592704e-07
6.87911011336e-05
-1.41744908795e-06
6.7973381921e-05
-1.95420911264e-06
-2.55476396849e-06
6.6814174122e-05
5.08804131823e-05
7.87227137967e-07
5.31704661169e-05
2.16452999063e-06
5.62177496803e-05
3.00906716886e-06
5.94382697495e-05
3.30264736787e-06
6.24449697077e-05
3.18548899685e-06
6.50382533426e-05
2.8247341007e-06
6.71548672017e-05
2.35976719172e-06
6.88135660446e-05
1.88532031507e-06
7.00731724341e-05
1.45476809047e-06
7.10056698051e-05
1.09133078985e-06
7.16812665056e-05
7.99459226355e-07
7.21614262568e-05
5.73543552121e-07
7.24966075541e-05
4.03650677892e-07
7.27264844427e-05
2.78884878242e-07
7.28812836334e-05
1.8911987245e-07
7.29834736432e-05
1.2572811065e-07
7.3049417646e-05
8.17486866881e-08
7.30908199473e-05
5.17748259179e-08
7.31159140691e-05
3.17254284076e-08
7.31303987577e-05
1.85900405669e-08
7.31381536508e-05
1.01909115558e-08
7.31417742766e-05
4.98011051493e-09
7.31429621917e-05
1.87486198447e-09
7.31428160219e-05
1.29334791889e-10
7.31419930605e-05
-7.74608508941e-10
7.31409104397e-05
-1.15819794882e-09
7.31397958746e-05
-1.24409053615e-09
7.31387687689e-05
-1.17065825105e-09
7.31378815711e-05
-1.02255378573e-09
7.31371481891e-05
-8.50114551156e-10
7.31365612328e-05
-6.8056988389e-10
7.31361033281e-05
-5.27666846149e-10
7.31357535926e-05
-3.96856042557e-10
7.31354914011e-05
-2.88752071103e-10
7.31352984087e-05
-2.01300201055e-10
7.31351589773e-05
-1.31514083781e-10
7.31350598601e-05
-7.61386836963e-11
7.31349885385e-05
-3.17051559707e-11
7.31349356248e-05
5.37527592083e-12
7.3134906115e-05
3.15919404461e-11
7.313488329e-05
5.42001638325e-11
7.31348667451e-05
7.41607403397e-11
7.31348546243e-05
9.22596985541e-11
7.31348451649e-05
1.09157943185e-10
7.31348370759e-05
1.25536395043e-10
7.31348294773e-05
1.41746631005e-10
7.31348217614e-05
1.57834051755e-10
7.31348135077e-05
1.7356492779e-10
7.31348044532e-05
1.88380725235e-10
7.31347945747e-05
2.01435198687e-10
7.31347839366e-05
2.1171917191e-10
7.31347726263e-05
2.17432181325e-10
7.3134760763e-05
2.16042002931e-10
7.31347486514e-05
2.04293675164e-10
7.31347370423e-05
1.78244976131e-10
7.31347266471e-05
1.33839327346e-10
7.31347111155e-05
6.73521212589e-11
7.31346888852e-05
-6.19905645911e-11
7.31346480682e-05
-3.24778993382e-10
7.31345828832e-05
-6.94480104818e-10
7.31344696681e-05
-1.22379359939e-09
7.31342651786e-05
-1.98000001313e-09
7.31339013992e-05
-3.05431252389e-09
7.31332634771e-05
-4.58069057877e-09
7.3132158549e-05
-6.75429664918e-09
7.31302649957e-05
-9.85675120628e-09
7.312705543e-05
-1.43068522302e-08
7.31216750895e-05
-2.07321445784e-08
7.31127118456e-05
-3.00190515261e-08
7.3097861662e-05
-4.34929885034e-08
7.30734177778e-05
-6.31688817329e-08
7.30334844537e-05
-9.21144608433e-08
7.29685507984e-05
-1.34413308791e-07
7.28636031481e-05
-1.95881299894e-07
7.26954812602e-05
-2.84260085394e-07
7.24296942277e-05
-4.0883595379e-07
7.20178950781e-05
-5.78691077797e-07
7.13989082154e-05
-7.98461780528e-07
7.05072124134e-05
-1.06251306574e-06
-1.34577282813e-06
6.92982215361e-05
5.07871725889e-05
5.44976064694e-11
5.29516497966e-05
5.2690421543e-11
5.59606884194e-05
2.85228828681e-11
5.92633219374e-05
1.38931835539e-11
6.24488086195e-05
2.4434258963e-12
6.52735493301e-05
-6.40248616883e-12
6.76333290839e-05
-1.22749997256e-11
6.95186649254e-05
-1.517341459e-11
7.09734489599e-05
-1.55442137723e-11
7.20647941619e-05
-1.39874377063e-11
7.28642649515e-05
-1.11370520385e-11
7.34378165602e-05
-7.6476783656e-12
7.38414717988e-05
-4.18084791153e-12
7.41203584103e-05
-1.39526306398e-12
7.43094784283e-05
1.40932904665e-13
7.44352067542e-05
1.64027458451e-14
7.45169576712e-05
-2.0438823868e-12
7.45687384331e-05
-5.79161465254e-12
7.46004745675e-05
-1.05933815803e-11
7.46190801765e-05
-1.54731711682e-11
7.46292904861e-05
-1.93062990922e-11
7.46342916983e-05
-2.10035723831e-11
7.4636186783e-05
-2.00968052735e-11
7.4636334128e-05
-1.78676136316e-11
7.46355751783e-05
-1.54877562868e-11
7.46344296913e-05
-1.2510265226e-11
7.46331949278e-05
-9.10105813836e-12
7.46320298301e-05
-5.31163087349e-12
7.46310081945e-05
-6.53778410876e-13
7.46301551205e-05
3.23202225798e-12
7.46294670622e-05
7.76658615303e-12
7.46289270446e-05
1.26450638555e-11
7.46285126585e-05
1.78311063927e-11
7.46282008073e-05
2.34009003275e-11
7.46279702829e-05
2.95345532373e-11
7.4627802729e-05
3.63464015574e-11
7.46276829761e-05
4.39107736559e-11
7.46275993421e-05
5.21981684816e-11
7.46275437769e-05
6.12425011623e-11
7.4627504969e-05
7.06379705722e-11
7.46274790402e-05
8.03635229966e-11
7.46274621383e-05
9.13012019278e-11
7.46274512598e-05
1.0335298212e-10
7.46274441965e-05
1.16432656583e-10
7.46274394031e-05
1.30531829153e-10
7.46274358088e-05
1.45532690385e-10
7.46274326692e-05
1.61163162568e-10
7.46274294547e-05
1.76976073404e-10
7.46274257545e-05
1.92300252017e-10
7.46274212304e-05
2.06207235868e-10
7.46274156906e-05
2.17508026059e-10
7.46274089165e-05
2.2443803051e-10
7.46274005628e-05
2.24635922001e-10
7.46273900044e-05
2.15173869199e-10
7.46273761562e-05
1.92521712239e-10
7.46273567661e-05
1.53103445116e-10
7.46273315593e-05
9.31371059616e-11
7.46272869459e-05
-1.67176072802e-11
7.46271994967e-05
-2.37117026594e-10
7.46270644932e-05
-5.59269312302e-10
7.46268424395e-05
-1.00147767771e-09
7.46264725878e-05
-1.60989971152e-09
7.46258586794e-05
-2.44019874836e-09
7.46248440554e-05
-3.5659117632e-09
7.46231738008e-05
-5.08390965364e-09
7.46204314999e-05
-7.1143187006e-09
7.46159504574e-05
-9.82569894131e-09
7.46086733786e-05
-1.34549714422e-08
7.45968646339e-05
-1.82101385275e-08
7.45777245101e-05
-2.43526364238e-08
7.45468357989e-05
-3.22799039271e-08
7.4497472786e-05
-4.27511395299e-08
7.44189034374e-05
-5.58436122452e-08
7.42947369568e-05
-7.17144185502e-08
7.41006055858e-05
-9.01282887968e-08
7.38017086725e-05
-1.09938626086e-07
7.33514081638e-05
-1.28390201738e-07
7.26932633909e-05
-1.40316630185e-07
7.17692849299e-05
-1.38534350695e-07
-1.14556609512e-07
7.05380689237e-05
5.07871715531e-05
-7.87117102134e-07
5.29516489439e-05