/*--------------------------------*- C++ -*----------------------------------*\
| =========                 |                                                 |
| \\      /  F ield         | OpenFOAM: The Open Source CFD Toolbox           |
|  \\    /   O peration     | Version:  2106                                  |
|   \\  /    A nd           | Website:  www.openfoam.com                      |
|    \\/     M anipulation  |                                                 |
\*---------------------------------------------------------------------------*/
FoamFile
{
    version     2.0;
    format      ascii;
    arch        "LSB;label=32;scalar=64";
    class       volScalarField;
    location    "0.045";
    object      p;
}
// * * * * * * * * * * * * * * * * * * * * * * * * * * * * * * * * * * * * * //

dimensions      [0 2 -2 0 0 0 0];

internalField   nonuniform List<scalar> 
11200
(
184.998855733
182.070277043
180.956508892
180.42933193
180.062245105
179.767803828
179.50657965
179.258511149
179.014462983
178.769804397
178.521775408
178.268566192
178.008904582
177.741833137
177.466579906
177.182483196
176.88897507
176.585546195
176.27153474
175.946375829
175.609488543
175.26026294
174.898064731
174.522243003
174.132127287
173.727009541
173.306172832
172.868886639
172.414406235
171.941973549
171.450818017
170.940156504
170.409195183
169.85712986
169.283145836
168.686418417
168.066113239
167.421386592
166.751385758
166.055249309
165.332107392
164.581081965
163.801286982
162.991828459
162.151804426
161.280304719
160.37641057
159.439193912
158.467716295
157.461027329
156.41816255
155.33814056
154.219959271
153.062591048
151.864976517
150.626016694
149.344563059
148.019405036
146.649254254
145.232724704
143.768307793
142.254340692
140.688966275
139.070083652
137.395283423
135.661761548
133.866208427
132.004665552
130.072331274
128.063295043
125.970179696
123.783660598
121.491514098
119.077618793
116.519983409
113.787126791
110.831756152
107.582195888
103.888082206
99.1321646611
183.20579894
181.84763999
181.056715754
180.556792166
180.165955618
179.842294852
179.558061257
179.293791467
179.038644835
178.786426098
178.53325701
178.276576403
178.014609594
177.746057086
177.469912757
177.185352488
176.891641936
176.588065473
176.274061611
175.949020889
175.61231237
175.263300897
174.901337181
174.525749895
174.135848993
173.730942053
173.31031465
172.873235877
172.418960572
171.946729435
171.455770144
170.945305643
170.414544575
169.862682697
169.288905023
168.692386784
168.072293606
167.427781811
166.757998741
166.062083084
165.339165156
164.588367158
163.808803367
162.999580226
162.159796324
161.288542242
160.384900176
159.447943269
158.476734591
157.470325662
156.427754407
155.348042396
154.230191226
153.073177829
151.875948495
150.63741126
149.356426319
148.031793955
146.662239342
145.246393399
143.782768906
142.269730388
140.705454659
139.087879354
137.414635768
135.682982295
133.889703996
132.030964493
130.102125622
128.097504101
126.010029592
123.830733908
121.548100323
119.146992514
116.60702696
113.899718975
110.984247875
107.802490987
104.251147181
100.131370662
182.210573727
181.556388154
181.004058034
180.566488704
180.194954043
179.872995121
179.584094054
179.314102785
179.053899539
178.797657168
178.541446136
178.282540329
178.018989514
177.7493394
177.472454981
177.187407427
176.893401904
176.589745065
176.275700188
175.950664448
175.61398955
175.265025704
174.903115555
174.527589614
174.137763557
173.732936521
173.312391946
172.875399485
172.421215501
171.949084198
171.458237235
170.947884217
170.417232092
169.865478435
169.291809695
168.695402156
168.075422109
167.431026417
166.761362952
166.065570991
165.342781545
164.592117645
163.812694573
163.003620007
162.163994066
161.292909226
160.389450002
159.452692367
158.481702915
157.475537482
156.433239271
155.35383631
154.236338097
153.079731256
151.882973958
150.644988829
149.364653944
148.040791479
146.672153429
145.257403684
143.795095503
142.283642151
140.721279495
139.106033791
137.435671533
135.70760077
133.918779083
132.065606754
130.143768173
128.148022463
126.071916237
123.907380757
121.644315425
119.26977207
116.766982536
114.113989801
111.282604071
108.240786285
104.952107813
101.392473999
181.66077521
181.297410112
180.897527301
180.528560704
180.190992519
179.88297774
179.597748431
179.327219727
179.065044992
178.806565654
178.548324048
178.28774673
178.022895703
177.752274188
177.474688445
177.189151256
176.89481107
176.590900052
176.276767986
175.951683125
175.614991739
175.266037799
174.90415563
174.528668653
174.138886958
173.734106438
173.313608827
172.876662133
172.422520963
171.950427175
171.45961123
170.949296393
170.418690766
169.866992353
169.293383876
168.697040956
168.07712961
167.432806888
166.763221153
166.067512499
165.344812994
164.594246976
163.814931326
163.005975681
162.166482578
161.295547465
160.39225852
159.455696049
158.484931918
157.479028402
156.437036575
155.357994067
154.240922095
153.084821603
151.888668287
150.651406257
149.371940051
148.049124769
146.681753818
145.268542917
143.808109983
142.298954493
140.739422842
139.12765489
137.461544919
135.738692426
133.956321802
132.111180306
130.199413391
128.216408617
126.156604454
124.013259722
121.778124259
119.441122823
116.990109227
114.410885556
111.688535631
108.81310908
105.788032312
102.650126673
181.326693231
181.094912455
180.793509702
180.482543616
180.177728916
179.885757283
179.60686939
179.337866262
179.075050929
178.815107661
178.555241419
178.293176208
178.027082715
177.755481959
177.477157841
177.191086081
176.896377428
176.592234117
176.277927062
175.952747853
175.616015811
175.267056981
174.905194198
174.529742885
174.140008004
173.735282536
173.314846639
172.877967567
172.423900207
171.951887466
171.46115995
170.950935673
170.420419388
169.868804189
169.295277701
168.699017741
168.079192156
167.434959697
166.76546994
166.069864385
165.347276552
164.596832477
163.817651108
163.008844618
162.169518637
161.298772336
160.39569836
159.459382457
158.488903708
157.483332855
156.441731249
155.363149067
154.246622861
153.091172325
151.895796104
150.659466426
149.381122261
148.059660521
146.693923958
145.282686327
143.824644763
142.31839347
140.762389318
139.154940583
137.494154562
135.777889169
134.003696192
132.168752548
130.269776879
128.302931927
126.263716016
124.146855889
121.946228619
119.654890452
117.265381558
114.770635551
112.166381175
109.457001906
106.663912632
103.83789861
181.123270673
180.947376616
180.706184467
180.438860417
180.16168365
179.885074774
179.613442019
179.347025755
179.084364541
178.823457128
178.562238373
178.298806261
178.031500871
177.758902336
177.479797769
177.193140303
176.89800921
176.59357497
176.279071263
175.953772146
175.61697512
175.267989795
174.906127092
174.530693756
174.140988696
173.73630068
173.315907062
172.879073287
172.425052496
171.953085589
171.46240185
170.952219177
170.421745082
169.870178008
169.296707167
168.700511539
168.080757127
167.436602786
166.767198239
166.071686318
165.349202244
164.59887417
163.819823617
163.011165878
162.172010388
161.301460992
160.398616115
159.462568827
158.492405954
157.487208316
156.446049529
155.367994626
154.252098248
153.097402142
151.902931839
150.667692368
149.390662888
148.070790362
146.706983736
145.298103435
143.842938916
142.340185093
140.78845731
139.186242337
137.531872624
135.823497985
134.059047548
132.236187599
130.352277934
128.404331999
126.388992208
124.302544156
122.141017832
119.900466067
117.577598026
115.171062336
112.683948827
110.128498235
107.531866618
104.941482399
181.000127766
180.8445171
180.638206745
180.401634401
180.146155335
179.882887981
179.618310283
179.354861459
179.092803609
178.831290002
178.568959281
178.304302948
178.03585927
177.762292277
177.482410274
177.195155814
176.899583728
176.594836266
176.280120066
175.954684795
175.617807923
175.268782731
174.906908128
174.531481989
174.141796894
173.73713725
173.316777531
172.87998137
172.426001094
171.954077647
171.463440828
170.953310012
170.422893763
169.871390105
169.297986615
168.701857889
168.082173036
167.438093523
166.768772328
166.073353527
165.350974221
164.600764909
163.821850015
163.013348403
162.174373853
161.304035471
160.401438025
159.46568236
158.4958651
157.491078391
156.450409994
155.372942253
154.257750905
153.103903434
151.910456824
150.676454592
149.40092294
148.082865456
146.721255515
145.315035716
143.863096439
142.364283407
140.817368703
139.22104008
137.57388558
135.874376008
134.12084744
132.311486905
130.444326197
128.517253132
126.52805714
124.474537741
122.354726371
120.167307659
117.912380994
115.592759847
113.216095192
110.798170554
108.36615098
105.959793006
180.926026496
180.776000931
180.589223064
180.37309206
180.133365173
179.880538284
179.621918293
179.361220704
179.099909456
178.838039833
178.574844882
178.30917093
178.039747416
177.765327295
177.48474849
177.196951358
176.900973377
176.595934019
176.281016756
175.955449001
175.618492232
175.269424526
174.907533481
174.532108866
174.142437426
173.737799543
173.317467063
172.880701997
172.426755827
171.954869192
171.46427184
170.954182739
170.423810144
169.872351551
169.298994884
168.702919867
168.083297926
167.439289129
166.770046909
166.07471738
165.352439933
164.602347788
163.823568634
163.015225273
162.176436255
161.306316482
160.403977773
159.468529393
158.499078494
157.494730499
156.454588608
155.377753893
154.263324924
153.110396979
151.91806087
150.685401338
149.411495006
148.095407889
146.736192059
145.332881204
143.884487526
142.389987888
140.848326914
139.258408521
137.619088995
135.929173593
134.187418156
132.392539164
130.543239024
128.638258186
126.676473016
124.657066971
122.579819984
120.445583253
118.257032683
116.019802272
113.744087275
111.446736734
109.152753917
106.89453391
180.883734409
180.734260842
180.557810613
180.354031976
180.124461951
179.878731353
179.624372958
179.365760984
179.105096588
178.843042171
178.579255854
178.312850179
178.042704628
177.767645891
177.486539526
177.198327861
176.902037514
176.596771763
176.281696847
175.956025544
175.619005144
175.269902735
174.90799739
174.532572578
174.142910529
173.738288514
173.31797636
172.881234846
172.427314779
171.955456485
171.464889683
170.954833473
170.424496565
169.873077685
169.29976625
168.703741712
168.08417482
167.440228461
166.771057985
166.075811461
165.353630564
164.603651336
163.825004926
163.016818363
162.178215351
161.308317071
160.406243005
159.471111717
158.502041524
157.498151147
156.458560295
155.38239017
154.268763806
153.116806237
151.925644502
150.694407483
149.422225524
148.108229822
146.751551503
145.351318004
143.906661318
142.416710584
140.880587449
139.297416075
137.666324509
135.986453188
134.256973253
132.477116455
130.646224663
128.763832189
126.829797883
124.844510383
122.809202222
120.726418665
118.600691098
116.439446134
114.254128636
112.061426305
109.8837175
107.747540081
180.86444968
180.71454003
180.542535083
180.344550036
180.119940892
179.877789124
179.625646078
179.368155463
179.107863913
178.84573665
178.581652218
178.314865382
178.044337956
177.768938342
177.487548647
177.199113424
176.902654178
176.597265932
176.282105985
175.956378913
175.619324568
175.270204242
174.908292372
174.532868992
174.143213897
173.738602715
173.31830423
172.881578639
172.427676514
171.95583812
171.46529338
170.955261771
170.424952566
169.873565122
169.300289165
168.704305315
168.084785857
167.440894909
166.771789269
166.076619033
165.354528357
164.604656273
163.82613755
163.018103612
162.179683493
161.310004859
160.408195057
159.473382196
158.504696208
157.501269933
156.462240211
155.386749021
154.273944609
153.12298263
151.933027329
150.703252805
149.432844417
148.121000398
146.766933715
145.36987227
143.929065509
142.4437935
140.913358033
139.337098437
137.714409785
136.044759342
134.32771537
132.56299238
130.750519656
128.89054502
126.983782323
125.031627413
123.036468128
121.002114765
118.934369855
116.841725914
114.736119525
112.633595948
110.554183028
108.520150425
180.86445244
180.714556267
180.542562268
180.344586451
180.119985778
179.877841619
179.625705276
179.368220537
179.107934163
178.845811499
178.581731204
178.314948151
178.044424249
177.76902798
177.487641517
177.199209464
176.902753382
176.597368343
176.282211695
175.956488134
175.61943757
175.270321355
174.908414001
174.532995632
174.143346156
173.738741341
173.318450139
172.881732937
172.427840485
171.956013463
171.465482082
170.955466247
170.42517573
169.873810489
169.300561102
168.704609277
168.085128314
167.441283727
166.772233986
166.077131237
165.355122127
164.605348705
163.826949411
163.019060121
162.180815286
161.311349151
160.40979705
159.47529677
158.506989984
157.504023769
156.465552246
155.390738359
154.278755789
153.128791059
151.940045876
150.711739802
149.443113349
148.133431574
146.781988362
145.388111239
143.95116632
142.470569321
140.945804524
139.376427243
137.762089384
136.102555876
134.39776548
132.647894793
130.85341826
129.015188902
127.134625461
125.213928768
123.256361591
121.266624161
119.2513235
117.21950581
115.183169274
113.157622644
111.161108903
109.21305195
180.883742749
180.734309934
180.557892771
180.354141963
180.124597437
179.878889627
179.624551212
179.365956753
179.10530779
178.843267084
178.579493104
178.313098712
178.042963672
177.767914912
177.48681819
177.198616001
176.902335127
176.597078986
176.282013925
175.95635307
175.619343943
175.270253798
174.908361922
174.532952049
174.143306737
173.738703663
173.318413144
172.881696546
172.427805374
171.955980841
171.465453698
170.95544437
170.425163206
169.873810828
169.300578589
168.704649093
168.085196768
167.44138853
166.772384516
166.07733889
165.355400757
164.605715152
163.827424146
163.019668025
162.181586598
161.312320608
160.411013267
159.476811919
158.508869816
157.506348077
156.468417843
155.394262687
154.283081291
153.134090475
151.946528652
150.719659855
149.452778471
148.145214792
146.796341681
145.405582832
143.972423154
142.496419829
140.977216011
139.414566501
137.808358491
136.158660917
134.465748586
132.730155824
130.952778848
129.135015686
127.27888102
125.387199618
123.463870674
121.514192108
119.545247028
117.566322694
115.589289259
113.628831251
111.70201163
109.826635275
180.926040596
180.776083996
180.589361843
180.373277469
180.133593106
179.880804062
179.622217143
179.361548483
179.100262689
178.838415665
178.575241044
178.309585687
178.040179496
177.765775829
177.485212947
177.197431492
176.901469226
176.59644585
176.28154485
175.955994228
175.61905603
175.270008569
174.908139755
174.532739784
174.143095949
173.738489299
173.318192491
172.881468503
172.427569962
171.95573888
171.465206655
170.955194294
170.424912736
169.873563267
169.300337997
168.704420416
168.084986037
167.441203083
166.772233298
166.077232802
165.355353068
164.605742023
163.827545249
163.019907295
162.181973127
161.312889742
160.411807945
159.477884276
158.510283135
157.508179137
156.470759769
155.397228393
154.286807655
153.138743383
151.952309094
150.726811266
149.461595559
148.156054113
146.809634237
145.421848851
143.992289312
142.520641572
141.006705875
139.450419236
137.851886471
136.211420172
134.529592016
132.807296394
131.045831139
129.247003154
127.413268744
125.547909821
123.655254503
121.740948082
119.812273664
117.878503758
115.951239617
114.044677088
112.175291021
110.36039907
181.000147974
180.844636264
180.638405208
180.401898619
180.146479113
179.883264449
179.618732588
179.355323728
179.093300971
178.83181849
178.569515762
178.30488503
178.036465206
177.762920873
177.483060808
177.195827939
176.900277494
176.595552068
176.280858146
175.955446521
175.618595282
175.269597986
174.907753987
174.532361741
174.142714583
173.73809784
173.317787117
172.881047387
172.427132636
171.955285819
171.464739041
170.954713893
170.424421861
169.873064832
169.29983566
168.703918749
168.084490743
167.440721008
166.771772719
166.076803841
165.354968129
164.605416192
163.827296883
163.019758741
162.181951581
161.313028283
160.412146769
159.478472202
158.51117942
157.509455664
156.472503697
155.399545367
154.289825692
153.142617549
151.957227127
150.733000327
149.469330363
148.165666655
146.821525425
145.436502363
144.010287818
142.542685168
141.033633253
139.483233773
137.891785029
136.259824056
134.588177587
132.878026436
131.130985917
129.349203815
127.535480898
125.693420315
123.827609234
121.94383882
120.049368589
118.153237601
116.266628566
114.403302081
112.579582896
110.813301957
181.123297632
180.947535564
180.706447796
180.439209211
180.162109141
179.885567584
179.613993069
179.347627406
179.085010548
178.824142452
178.562959065
178.299559323
178.032284121
177.759714288
177.480637481
177.194007176
176.898903024
176.594496115
176.280020163
175.954751711
175.617987322
175.269037153
174.907212811
174.531821792
174.142163936
173.737529114
173.317196031
172.880431747
172.426491665
171.954619717
171.464048749
170.95400097
170.423688353
169.872313153
169.29906875
168.703140454
168.083705994
167.439935971
166.770995012
166.076042677
165.354234646
164.604724046
163.826662859
163.019203161
162.181499122
161.312708951
160.411997042
159.478536382
158.511511304
157.510120476
156.473580476
155.401129876
154.2920339
153.145589815
151.961133292
150.738045879
149.475763686
148.173787578
146.831695382
145.449156413
144.025948742
142.561979857
141.057311408
139.512188985
137.927077998
136.30270714
134.640120051
132.940737167
131.206430205
129.439610348
127.643330555
125.821405622
123.978551726
122.120551574
120.254458641
118.388864927
116.534306138
114.703953004
112.914071185
111.183686271
181.326727613
181.095116032
180.793844376
180.482983985
180.178262953
179.886372684
179.607554689
179.338612062
179.07584967
178.815953328
178.55612935
178.294102915
178.028045744
177.756479768
177.478189588
177.192151316
176.897476664
176.593369579
176.279094256
175.953951343
175.617258943
175.268342732
174.906526204
174.531125604
174.141446946
173.736784366
173.316419456
172.879621159
172.425646101
171.95373904
171.46313354
170.953052541
170.422708796
169.871305333
169.298035978
168.702086207
168.082633877
167.438850545
166.769902348
166.074950457
165.353152388
164.603663227
163.825637746
163.018231331
162.180602094
161.311912939
160.411333897
159.478044758
158.51123823
157.510122995
156.473927775
155.401905829
154.293340127
153.147549401
151.963895116
150.741788987
149.480703984
148.180185514
146.839864679
145.459474284
144.038867778
142.578041689
141.077162232
139.536596825
137.956951328
136.339114024
134.684306822
132.994144608
131.27070335
129.516596698
127.735060163
125.930041967
124.106299292
122.269502473
120.42636215
118.584812791
116.754396547
114.947211212
113.178840413
111.46920555
181.660816996
181.297661969
180.897935819
180.52909303
180.191632674
179.883710011
179.598558857
179.328097202
179.065980733
178.807552775
178.549357283
178.288822243
178.024010974
177.753428021
177.475880982
177.190384134
176.896090247
176.592239804
176.278127496
175.953079184
175.616433446
175.267530591
174.90570494
174.530280474
174.140568552
173.735866969
173.315459838
172.878617689
172.424597938
171.952645764
171.461994862
170.951868198
170.421478891
169.870030694
169.296718607
168.700729524
168.081242176
167.437428933
166.768456362
166.073486738
165.351679093
164.602190705
163.824177998
163.016798998
162.179215022
161.310592896
160.410107433
159.476944218
158.510302987
157.509400417
156.473475136
155.401792409
154.293649686
153.148383136
151.96537537
150.744064808
149.483955472
148.184629381
146.845761434
145.467136573
144.048669964
142.590430761
141.092670072
139.555853729
137.980700462
136.368226243
134.719794781
133.037174071
131.322598715
129.578836321
127.809255866
126.017892362
124.209502003
122.389602284
120.56450024
118.74131315
116.92816862
115.135198695
113.375413468
111.666889684
182.210627703
181.556702451
181.00455042
180.567118335
180.195701246
179.873840891
179.585022202
179.315100725
179.054957409
178.798767219
178.542602363
178.283738148
178.020225541
177.75061132
177.473761619
177.188749377
176.894779314
176.59113111
176.277134015
175.952141976
175.615512166
175.266598398
174.904744466
174.52928076
174.139522857
173.734771328
173.314312222
172.87741734
172.423345406
171.951342248
171.46064213
170.950468178
170.420032284
169.868537742
169.295179738
168.699144819
168.079612935
167.435757537
166.766746369
166.071742766
165.349906925
164.600397357
163.82237241
163.014992312
162.177420962
161.308828225
160.408392517
159.475303731
158.508766405
157.508004314
156.472264092
155.400820479
154.2929823
153.148099306
151.96557009
150.744852083
149.485472862
148.187042675
146.849270006
145.471979658
144.055133936
142.598857482
141.103466347
139.569501605
137.997768155
136.389378937
134.745804507
133.068926386
131.361096622
129.625197714
127.864699167
126.083703294
124.286969726
122.479903849
120.6684762
118.858978962
117.057857168
115.272254382
113.508817379
111.774528033
183.205900392
181.84809997
181.057400951
180.557649726
180.166962401
179.84343006
179.559307847
179.295136305
179.040077636
178.787938684
178.534842806
178.278229901
178.016325713
177.747830278
177.471735341
177.187212755
176.893536803
176.590030173
176.276103988
175.951128191
175.614479301
175.265525687
174.903620417
174.528099446
174.138281459
173.733468416
173.31294576
172.875981657
172.421838012
171.949761433
171.458986292
170.948736348
170.418226196
169.86665989
169.293231899
168.697129045
168.077531125
167.433611648
166.764538795
166.069476535
165.3475859
164.598026418
163.81995771
163.012541367
162.174943007
161.306334619
160.405897246
159.472823992
158.50632319
157.505622747
156.469974539
155.398659704
154.290994803
153.146339092
151.964103099
150.743758032
149.484847037
148.186999508
146.849946832
145.473540987
144.057776335
142.602815034
141.109016645
139.576972262
138.007543706
136.401907878
134.761605153
133.088589243
131.38529705
129.654697525
127.900338987
126.126391422
124.337664043
122.539582508
120.738038918
118.938883567
117.147574844
115.368692062
113.597089548
111.799216049
184.999023695
182.070949564
180.957504859
180.430589077
180.063733162
179.769498154
179.508461615
179.260567152
179.016683081
178.772181504
178.52430484
178.271245454
178.011733547
177.744814983
177.469723375
177.185802004
176.892463725
176.589170683
176.275310198
175.950318494
175.613609728
175.264572487
174.902572187
174.526952208
174.137035292
173.732125372
173.311510625
172.874467728
172.42024976
171.948101152
171.457255674
170.946936239
170.416355668
169.864717733
169.291217558
168.695042319
168.075372111
167.431380755
166.762236771
166.067104527
165.345145518
164.595519826
163.817387745
163.009911653
162.172258103
161.303600203
160.40312031
159.47001304
158.503488733
157.502777604
156.467134319
155.395843344
154.288225186
153.143643698
151.96151467
150.741316166
149.482599818
148.185004827
146.848274185
145.472273666
144.057013924
142.602676426
141.109643471
139.578532869
138.010237444
136.405969724
134.76731308
133.096282798
131.395361823
129.667566764
127.916510129
126.146439323
124.362261304
122.569530795
120.774409818
118.983629407
117.203985818
115.441324545
113.677884237
111.781579831
91.6580309713
88.1286637304
85.7559415782
83.8217898033
82.170542571
80.7279589807
79.4489541202
78.3046137416
77.2749824513
76.3451495258
75.5032316744
74.7393119038
74.0448850049
73.4125548539
72.8358471388
72.3090745654
71.8272294025
71.3858928207
70.9811569154
70.6095579315
70.2680183858
69.9537970956
69.6644464614
69.397775661
69.1518192031
68.924810035
68.7151562112
68.5214207046
68.342303711
68.1766269714
68.0233197638
67.8814066763
67.7499970319
67.6282757341
67.515495712
67.4109715032
67.3140736416
67.2242234843
67.1408884854
67.0635789784
66.9918514319
66.9253261954
66.8636350763
66.8064082525
66.7532628984
66.7038810797
66.6579831934
66.6153068916
66.5756155192
66.5386816194
66.5042857017
66.4722217649
66.4423083306
66.4143794976
66.3882993529
66.3638941286
66.3410241265
66.3195633508
66.299395613
66.2804135082
66.2625173363
66.2456141409
66.2296172269
66.2144462108
66.200027242
66.1862928347
66.1731810275
66.1606342043
66.1485983374
66.1370230717
66.1258622979
66.1150743822
66.1046215116
66.0944684561
66.0845816746
66.0749294037
66.0654824164
66.0562144543
66.0471017061
66.0381216553
66.0292522008
66.0204716892
66.0117596357
66.0030973214
65.9944675874
65.9858540045
65.9772400142
65.968608683
65.9599431164
65.9512268501
65.9424435792
65.9335763669
65.9246070733
65.9155166534
65.9062857955
65.8968949361
65.8873235637
65.8775498235
65.8675506428
65.8573017623
65.8467767999
65.8359465751
65.82477961
65.8132427779
65.8013010237
65.7889155583
65.7760433577
65.7626385386
65.7486532587
65.7340358735
65.7187289798
65.7026698399
65.6857919758
65.6680238393
65.6492864366
65.6294934494
65.6085527491
65.5863659002
65.5628261893
65.5378183445
65.5112203011
65.4829025704
65.4527245828
65.4205350463
65.3861719127
65.3494594951
65.3102101288
65.2682228308
65.2232817663
65.1751530596
65.1235800205
65.0682713891
65.0088884542
64.9450153033
64.8761109467
64.8014156521
64.7197973373
64.6294915872
64.5276515289
64.409579579
64.2674339524
64.0880892913
63.8498002482
63.5175285158
63.037741786
62.33556436
61.3191734381
59.8945835675
57.9858807715
55.5491007397
52.5721355997
49.0624502357
45.0281945589
40.4657838354
35.3823886213
29.8312516589
23.8025189973
16.9969467534
9.30986957957
2.41145051603
94.8568978356
90.8135439392
88.1209536378
85.9918575834
84.2100188598
82.6734300753
81.3229351169
80.1222247708
79.0469192746
78.0792450421
77.2053739318
76.4140196472
75.6956895172
75.0422635881
74.4467302423
73.9029993444
73.4057574989
72.9503516596
72.5326924771
72.1491735881
71.796603845
71.4721504219
71.173290502
70.8977705796
70.6435723106
70.408883285
70.1920721796
69.9916673057
69.8063380176
69.6348783822
69.4761925112
69.3292820762
69.1932352134
69.0672169897
68.9504616942
68.8422662132
68.7419844452
68.6490221091
68.5628316978
68.4829065632
68.4087729484
68.3399847741
68.2761251803
68.2168077221
68.1617552863
68.1106443996
68.0631640918
68.0190292143
67.9779712039
67.93975216
67.9041615773
67.8709976476
67.8400688592
67.8111942697
67.7842109325
67.7589705726
67.735333024
67.7131674094
67.6923527187
67.6727770038
67.654336367
67.6369340861
67.6204801647
67.6048912974
67.5900909419
67.576008997
67.5625809513
67.549746813
67.5374504977
67.5256399322
67.5142675389
67.5032902475
67.4926687212
67.4823661861
67.4723477326
67.462580582
67.4530348042
67.4436834956
67.4345019895
67.4254667834
67.4165548903
67.4077441724
67.3990141
67.3903460752
67.3817229965
67.3731282024
67.3645449419
67.3559562909
67.3473457755
67.3386975241
67.3299959725
67.3212248217
67.3123667783
67.3034037476
67.2943179219
67.2850910891
67.2757043531
67.2661372353
67.2563687136
67.2463768066
67.2361377266
67.2256253178
67.2148112374
67.2036663457
67.1921590973
67.1802554292
67.1679167261
67.1551038548
67.1417756024
67.127887769
67.1133899641
67.0982295366
67.0823509138
67.0656955434
67.0481974466
67.0297865473
67.010388306
66.9899261337
66.9683165669
66.9454733201
66.9213052694
66.8957208335
66.868620768
66.8399046597
66.8094658178
66.7771979651
66.7429897149
66.7067276616
66.6683054034
66.6276049377
66.5845098429
66.5388898743
66.4905876326
66.4393985329
66.385011352
66.3269337958
66.2643131845
66.1956999294
66.1185670504
66.0285506187
65.9181536727
65.7745838803
65.5764095221
65.2886954009
64.8573148139
64.2048675268
63.2336450696
61.8401325939
59.9380799683
57.4766044968
54.4418454308
50.8430624817
46.6919492784
41.9881787979
36.7374351821
30.9896836815
24.7521912481
17.7643578811
9.89368924543
2.64844265395
97.0782747214
93.1492833282
90.3006810296
88.0388549301
86.1555908372
84.5410472791
83.1293960774
81.879642342
80.7641902352
79.7630234123
78.8607170427
78.0448288673
77.3050198807
76.6325452759
76.0199289386
75.4607325771
74.9493798047
74.4810171182
74.0514006019
73.6568030364
73.2939375951
72.959894564
72.6520884254
72.3682136238
72.1062078354
71.864220753
71.6405876588
71.4338068432
71.2425200156
71.0654955246
70.9016134849
70.7498530351
70.6092811494
70.479042984
70.3583539749
70.2464930231
70.1427967812
70.0466544366
69.9575031077
69.8748237499
69.7981380729
69.7270041575
69.6609993582
69.5997246995
69.5428078672
69.4899311566
69.4408074694
69.3951393839
69.352694079
69.3132221063
69.2764883349
69.2422779053
69.2103927644
69.1806490227
69.1528762191
69.1269151255
69.1026191911
69.0798528972
69.0584906419
69.0384158855
69.0195204717
69.0017040741
68.9848737736
68.9689436784
68.9538345413
68.9394732739
68.925792388
68.9127294246
68.9002266103
68.8882307106
68.8766929426
68.8655685882
68.8548163839
68.8443979539
68.8342775815
68.8244223422
68.8148021724
68.8053894696
68.7961583106
68.7870839919
68.7781430794
68.7693138547
68.7605765566
68.7519130111
68.7433059159
68.7347381059
68.7261926511
68.717653088
68.7091037934
68.7005296757
68.6919156344
68.6832458698
68.6745041458
68.6656739161
68.6567390259
68.647682664
68.6384871747
68.6291335855
68.6196027128
68.6098748247
68.5999287972
68.5897418272
68.5792892646
68.5685453136
68.5574815558
68.546068346
68.534273204
68.5220634281
68.5094037633
68.4962562809
68.4825785438
68.4683276153
68.4534591949
68.4379269623
68.4216781787
68.404658189
68.3868098208
68.3680758353
68.3483967115
68.3277142534
68.3059676632
68.2830988007
68.2590473295
68.2337599456
68.2071845205
68.1792750315
68.1499916092
68.1193017944
68.0871924079
68.0536532366
68.0186881472
67.9823049472
67.9445009947
67.9052422035
67.8644013001
67.8216860227
67.7764520336
67.7274519565
67.6723539647
67.6069637999
67.5239277976
67.4105687795
67.2455472115
66.9939208869
66.601126937
65.9880029924
65.0524183678
63.683283562
61.7855778075
59.3020418384
56.2166015705
52.5391992585
48.28376341
43.4523136375
38.0483730878
32.1169371365
25.680307921
18.5173340034
10.4696615242
2.88211540697
98.891300694
95.1735082008
92.2869566853
89.9520716376
87.9987616893
86.3245380759
84.8636023495
83.5731630102
82.423794993
81.3939719209
80.4670911207
79.6298134133
78.8711246574