/*--------------------------------*- C++ -*----------------------------------*\
| =========                 |                                                 |
| \\      /  F ield         | OpenFOAM: The Open Source CFD Toolbox           |
|  \\    /   O peration     | Version:  2106                                  |
|   \\  /    A nd           | Website:  www.openfoam.com                      |
|    \\/     M anipulation  |                                                 |
\*---------------------------------------------------------------------------*/
FoamFile
{
    version     2.0;
    format      ascii;
    arch        "LSB;label=32;scalar=64";
    class       volScalarField;
    location    "0.055";
    object      p;
}
// * * * * * * * * * * * * * * * * * * * * * * * * * * * * * * * * * * * * * //

dimensions      [0 2 -2 0 0 0 0];

internalField   nonuniform List<scalar> 
11200
(
175.364931252
172.436332981
171.322501201
170.795209212
170.42794599
170.133266697
169.871756205
169.623381212
169.379045867
169.134163864
168.886017012
168.632827698
168.373341961
168.106605703
167.831838303
167.548357053
167.255535413
166.952803512
166.639607905
166.315286965
165.979232657
165.630829593
165.269439285
164.894404123
164.505059619
164.100702234
163.680615501
163.244070843
162.790325591
162.318623534
161.828195706
161.3182605
160.78802416
160.236682213
159.663420126
159.067413107
158.447826633
157.803816822
157.134530799
156.439107078
155.716675906
154.96635951
154.18727222
153.378520462
152.539202634
151.668408882
150.765220684
149.828710123
148.857938784
147.851956161
146.809797522
145.730481098
144.613004427
143.456339602
142.259427116
141.021168005
139.740413886
138.415954394
137.046501392
135.630669142
134.166949305
132.65367929
131.089002104
129.470816883
127.796714263
126.063889916
124.269034166
122.408187909
120.476548439
118.468203462
116.375770939
114.189912191
111.898417328
109.485143921
106.928077426
104.19569869
101.240647127
97.9909885118
94.2958038653
89.5393838028
173.571887461
172.213715541
171.422755904
170.922765805
170.531819874
170.208002585
169.923571771
169.659082742
169.403723747
169.151334222
168.898070831
168.641401894
168.379572437
168.111290472
167.835544499
167.551495068
167.258405745
166.955579528
166.642322638
166.318035756
165.982105325
165.633878763
165.27269735
164.897889413
164.508759336
164.104612318
163.68473624
163.248401949
162.794865971
162.323371276
161.833147435
161.323411052
160.793374582
160.242235659
159.66917979
159.073381931
158.454007463
157.810212477
157.141144141
156.445941109
155.723733848
154.973644855
154.194788775
153.386272419
152.547194725
151.676646588
150.773710464
149.837459669
148.86695731
147.861254767
146.819389664
145.740383183
144.623236556
143.466926467
142.270399096
141.032562512
139.752277048
138.428343196
137.059486379
135.644337785
134.181410408
132.669069022
131.105490701
129.488613314
127.816069314
126.08511583
124.292538319
122.434500212
120.506362837
118.502442252
116.415668747
114.237079504
111.95514549
109.554733382
107.015460407
104.308842937
101.394085127
98.2132011623
94.6630589169
90.5461676204
172.576688431
171.922490426
171.370141293
170.932536724
170.560937502
170.238876582
169.949836772
169.679681767
169.419311838
169.162928967
168.906635218
168.647733456
168.384295462
168.114879193
167.838351197
167.553774322
167.260335011
166.957300841
166.644010872
166.319708527
165.983799265
165.635615066
165.274486084
164.899736315
164.510678499
164.106611146
163.686817849
163.250568927
162.797121776
162.325721113
161.835599683
161.325978154
160.796055774
160.24502815
159.672083008
159.076396781
158.457135901
157.813457205
157.144508522
156.449429181
155.727350391
154.977395503
154.198680166
153.390312426
152.551392752
151.68101393
150.778260732
149.842209334
148.871926336
147.866467393
146.824875393
145.74617799
144.629384341
143.473480828
142.277425521
141.040141069
139.760505663
138.437341659
137.069401286
135.655348808
134.193737734
132.682981656
131.121317204
129.506770121
127.837106279
126.109735284
124.321614548
122.469144629
120.548010357
118.552971479
116.477575605
114.313755776
112.051412854
109.677611186
107.17560023
104.523457609
101.693066224
98.6525237222
95.3655258926
91.8082696965
172.026916701
171.663538299
171.263643894
170.894659494
170.557054984
170.248975349
169.963649074
169.692997537
169.430690709
169.17209484
168.913781308
168.653205141
168.388451708
168.118039231
167.840778999
167.555679119
167.261877991
166.958594891
166.645092247
166.320754244
165.984825098
165.636641767
165.275533854
164.90081897
164.511803895
164.107783175
163.6880384
163.251838259
162.79843851
162.327082049
161.836999331
161.327410187
160.797526732
160.246547315
159.673659747
159.078036806
158.458843967
157.815237946
157.146366907
156.451370873
155.729382056
154.979525091
154.200917228
153.39266848
152.553881731
151.683652712
150.7810698
149.845213578
148.875155886
147.869958803
146.828673088
145.750336009
144.633968462
143.478571159
142.283119694
141.046558217
139.767791474
138.445674981
137.079002553
135.666489761
134.206754276
132.698296441
131.139461499
129.528391024
127.862979721
126.140827464
124.359158758
122.514721256
120.603660947
118.621366053
116.562276125
114.419653499
112.185253748
109.849012374
107.398801379
104.820453765
102.099104534
99.2248727706
96.2012172185
93.0650390176
171.692858533
171.461066048
171.159655594
170.848680493
170.543845608
170.251833163
169.97287843
169.703784967
169.440867975
169.180832445
168.920909419
168.658849929
168.392848112
168.1214413
167.843420539
167.557759382
167.263559505
166.960009146
166.646352899
166.321882589
165.985889048
165.637685464
165.276585874
164.901898745
164.51292472
164.108954582
163.689267773
163.253131769
162.799801862
162.328521517
161.838522558
161.329024832
160.7992355
160.248349238
159.675548531
159.080011418
158.460905626
157.81739025
157.148615352
156.453722514
155.731845474
154.982110588
154.203637174
153.39553778
152.556918372
151.686878396
150.784510595
149.848901246
148.879129246
147.874265109
146.833369863
145.75549334
144.63967179
143.484924702
142.290250643
141.054621906
139.776977625
138.456214634
137.091174494
135.680633346
134.223289559
132.717736194
131.162430718
129.555681232
127.895594973
126.180030301
124.406539423
122.572299726
120.674030432
118.707895086
116.669393125
114.553253474
112.353357223
110.062767899
107.67403688
105.180113714
102.576747449
99.8683356448
97.076268176
94.2513073045
171.489456717
171.313556683
171.072362112
170.805035483
170.527848528
170.251213919
169.979534596
169.7130519
169.450313773
169.189336469
168.928078031
168.664661409
168.397449173
168.125037934
167.846223139
167.559957691
167.265313432
166.961448383
166.647580351
166.322967268
165.986891486
165.638647897
165.27753794
164.902861198
164.513911831
164.109975951
163.690329752
163.254238512
162.800956077
162.329724346
161.839773264
161.33032135
160.800575886
160.249734284
159.676984952
159.081507361
158.462471231
157.819033531
157.150343968
156.455544871
155.733771658
154.984152842
154.205810331
153.397859796
152.559411003
151.689568098
150.787429841
149.852089028
148.882632587
147.878141177
146.837688145
145.760338231
144.645145818
143.491152475
142.297383664
141.062844492
139.786514417
138.467341235
137.104236232
135.696056247
134.241588445
132.739531584
131.188501572
129.586984887
127.933314157
126.225639465
124.461890153
122.639732665
120.756526928
118.809286514
116.794653844
114.708914829
112.548100173
110.308264133
107.986117225
105.580307549
103.093918577
100.539168297
97.9431575125
95.3532408785
171.366331842
171.210724244
171.004420015
170.767853826
170.512374638
170.249093716
169.984484214
169.720986101
169.458869731
169.197304062
168.93494881
168.670318479
168.40197241
168.128590494
167.848989676
167.562113418
167.26701068
166.962812724
166.64871189
166.323944355
165.98777104
165.639473764
165.278340994
164.90366324
164.51472803
164.110816675
163.69120205
163.255147213
162.801904599
162.330715554
161.840810246
161.33140788
160.801717479
160.250937544
159.678256107
159.08285057
158.463886456
157.820524197
157.151917668
156.457211615
155.735543293
154.986043456
154.20783686
153.400042717
152.561775136
151.692143523
150.7902529
149.855204038
148.886093566
147.882013456
146.842051187
145.765288826
144.650801878
143.497657673
142.304913165
141.071611986
139.796780483
138.479422097
137.118510159
135.712987584
134.261746651
132.76363212
131.217415884
129.621785666
127.975329673
126.276518991
124.523689848
122.715029128
120.848568204
118.922194239
116.933695048
114.880867988
112.76174135
110.574994912
108.320719666
106.001714653
103.62560531
101.208131058
98.7763904948
96.3700587953
171.292245669
171.142233144
170.955471899
170.739358452
170.499643731
170.246815899
169.988176891
169.727443003
169.466086261
169.204177047
168.940968439
168.675328453
168.40600634
168.131770073
167.851466018
167.564035989
167.268512706
166.964005937
166.649686215
166.324769419
165.988500628
165.640147607
165.278987888
164.904303625
164.515376254
164.111482683
163.691892738
163.255867465
162.80265806
162.331505269
161.841639132
161.332278934
160.802633358
160.251900569
159.679268088
159.083914293
158.465010691
157.821719378
157.153192303
156.458575736
155.7370094
154.98762687
154.209556188
153.401920493
152.563838639
151.694425795
150.792793971
149.858052449
148.889308269
147.885666669
146.846230638
145.770101012
144.656376131
143.504151118
142.312516759
141.080557934
139.80735158
138.491964223
137.133448396
135.730836968
134.283142104
132.789340604
131.248377715
129.659157342
128.020535694
126.331318193
124.590260567
122.796078577
120.947473686
119.043185251
117.082086295
115.063355693
112.986766728
110.853160344
108.665196432
106.42848426
104.153181573
101.856082593
99.562122967
97.3036270321
171.249964861
171.10051263
170.924088491
170.720338413
170.490792614
170.245072935
169.990706388
169.732067791
169.471366502
169.209280101
168.945486494
168.679119305
168.409077044
168.134200753
167.853364148
167.565511233
167.269664549
166.964918772
166.650428413
166.325394307
165.989049717
165.640651557
165.279469138
164.90477823
164.515855558
164.111974635
163.692402941
163.256399985
162.80321604
162.332091376
161.842255867
161.332928875
160.803319305
160.252625879
159.680037631
159.084734664
158.465887334
157.822658266
157.154202851
156.459669374
155.738199789
154.988930455
154.210992847
153.403514299
152.565618784
151.696427715
150.795060719
149.860636381
148.892272945
147.889088978
146.850203989
145.774738959
144.661816721
143.510562198
142.320102461
141.089566536
139.818084945
138.504788887
137.148808901
135.749275455
134.305319891
132.816067595
131.28064292
129.698169712
128.067775442
126.388600829
124.659816973
122.880654822
121.050455079
119.168750146
117.235393941
115.250768872
113.216098358
111.13391353
109.008724618
106.847926984
104.662921156
102.470335482
100.292483127
98.1558452387
171.230686504
171.080802827
170.908829496
170.710879692
170.486302237
170.24416869
169.992023925
169.734512014
169.474187889
169.212032147
168.947943172
168.681196634
168.410773048
168.135554831
167.854432078
167.566351088
167.270329584
166.965454469
166.650871822
166.325774567
165.98938943
165.640967547
165.279773891
164.905080787
164.51616242
164.112290503
163.692731296
163.256743548
162.80357715
162.332472259
161.842658819
161.333356465
160.803774587
160.253112584
159.680560217
159.085298012
158.466497938
157.823324242
157.154933745
156.460476701
155.739097541
154.989935613
154.212125997
153.404800392
152.567088076
151.698116908
150.797014347
149.862908514
148.894929271
147.892209325
146.853885342
145.779099098
144.666998671
143.516739642
142.327486312
141.098412954
139.828705144
138.517561336
137.16419449
135.767832643
134.327726546
132.843154897
131.313415707
129.737851757
128.115858967
126.446904724
124.730558027
122.966533129
121.154755846
119.295468805
117.389379901
115.437879977
113.443347178
111.409575817
109.342344435
107.250110876
105.144764027
103.042287904
100.96264722
98.9280668671
171.230689988
171.080819737
170.908857236
170.710916477
170.486347241
170.244220999
169.992082635
169.734576318
169.474257143
169.212105849
168.948020937
168.681278176
168.410858174
168.135643436
167.854524128
167.566446591
167.270428553
166.965556923
166.650977794
166.325884115
165.989502751
165.641084932
165.279895717
164.905207537
164.516294698
164.112429055
163.692877045
163.25689763
162.80374091
162.332647318
161.842847206
161.333560631
160.80399748
160.25335774
159.680831914
159.085601582
158.466839968
157.823712616
157.155378056
156.460988621
155.739691231
154.990628243
154.212938375
153.405757755
152.568221041
151.699462629
150.798617935
149.864824757
148.897224707
147.894964752
146.857198858
145.783089803
144.671811147
143.522549389
142.334506342
141.106901756
139.838976322
138.529995209
137.179252357
135.786074804
134.349828731
132.869934531
131.345877099
129.777205344
128.163565979
126.50473175
124.800638173
123.051440768
121.257617979
119.42007176
117.540188261
115.620152111
113.663216137
111.674065399
109.659283304
107.627881297
105.591809471
103.566314715
101.569575655
99.6209649877
171.24997535
171.100563716
170.924172295
170.720449485
170.490928437
170.24523067
169.990883194
169.732261267
169.471574732
169.209501587
168.945720087
168.679364164
168.409332607
168.134466707
167.853640387
167.565797773
167.269961444
166.965226094
166.650746268
166.325722839
165.989389479
165.641003431
165.279834259
164.905158026
164.516251814
164.112389561
163.692839251
163.256861001
162.803705808
162.332614816
161.84281895
161.333538832
160.80398494
160.253357938
159.680849135
159.085641046
158.466908022
157.823816986
157.155528182
156.461195989
155.739969783
154.99099489
154.213413632
153.406366517
152.568993516
151.700435488
150.799835709
149.866341525
148.899106139
147.897290572
146.860065836
145.786615381
144.676137814
143.52784998
142.340990433
141.114823399
139.848643432
138.541780922
137.193608799
135.803550682
134.371089965
132.895780553
131.377265868
129.81530544
128.209792634
126.560788752
124.868571342
123.133694087
121.357045122
119.539968924
117.684505356
115.793482419
113.870789347
111.92170946
109.953304443
107.974829566
105.998109526
104.03776784
102.110799194
100.234951621
171.292263284
171.142319476
170.955613377
170.739545625
170.499872204
170.247080795
169.988473375
169.727767032
169.466434617
169.204547231
168.94135856
168.675737146
168.406432701
168.132213595
167.851926515
167.564513477
167.269007292
166.964517798
166.650215584
166.325316414
165.989066029
165.640732969
165.279595105
164.904935042
164.5160348
164.112171989
163.692617278
163.256632714
162.803470686
162.332373356
161.842572423
161.333289173
160.803734721
160.253110428
159.680608401
159.085412082
158.466696908
157.82363111
157.155376556
156.461089604
155.739922005
154.991021946
154.213535234
153.406606601
152.569381145
151.701005949
150.80063186
149.867415411
148.900520957
147.899123031
146.862409026
145.789582227
144.679865261
143.532504027
142.346772197
141.121976443
139.857462594
138.552622886
137.206904656
135.819820879
134.390963355
132.920018729
131.406786259
129.851201274
128.253367517
126.61359763
124.932462804
123.210857844
121.450083645
119.651946612
117.818900034
115.954219487
114.062225729
112.148554017
110.220471641
108.287225775
106.360378813
104.45406945
102.584699312
100.769515435
171.366356835
171.210847864
171.004622153
170.768120434
170.512699134
170.249468975
169.984903299
169.721443265
169.45936043
169.197824793
168.935496971
168.670892223
168.402570523
168.129212282
167.849634847
167.562781951
167.267702692
166.963528469
166.649451759
166.324708489
165.988560459
165.640290738
165.279188085
164.904543624
164.51564569
164.111776569
163.692210309
163.256211361
162.803033802
162.331920991
161.842105509
161.332809345
160.803244252
160.252612226
159.680106113
159.08491027
158.466201244
157.823148601
157.154915613
156.460660401
155.739536991
154.990696319
154.213287369
153.406458829
152.569360633
151.701145726
150.800972049
149.868004747
148.901418608
147.900400813
146.864154074
145.791900216
144.682884287
143.536379257
142.351691478
141.128167051
139.865199341
138.562237834
137.218798686
135.834477338
134.408963721
132.942060823
131.433707435
129.884005873
128.293255252
126.661992764
124.991045155
123.28159326
121.53525179
119.754167711
117.941141677
116.099774917
114.234651605
112.351558299
110.45774636
108.562239793
106.676194414
104.813323702
102.989877858
101.223602815
171.489489578
171.31372113
171.072629966
170.805387198
170.528274857
170.251705194
169.980081639
169.713647216
169.450951488
169.190012103
168.928788311
168.665404052
168.398222693
168.125841462
167.84705626
167.560820272
167.266205406
166.962369751
166.64853136
166.323947968
165.987905502
165.639697127
165.278625135
164.903990115
164.51508728
164.111203935
163.691617717
163.255595589
162.802393373
162.331255653
161.841415906
161.332096856
160.802510922
160.25186065
159.679339349
159.084132046
158.465416369
157.82236312
157.154137258
156.45989865
155.738803181
154.990004111
154.212653549
153.405903742
152.568908934
151.700827362
150.800823417
149.868070064
148.901751574
147.901066593
146.865231708
145.793485509
144.685093263
143.539352344
142.355598599
141.13321377
139.871634118
138.570360571
137.228970881
135.847134121
134.424628062
132.961359896
131.45739108
129.912967275
128.328554335
126.704881526
125.042993239
123.344310905
121.610706621
119.844591017
118.049017777
116.227802565
114.385662782
112.528382981
110.663018234
108.798159819
106.944336207
105.114692707
103.325431075
101.595498066
171.692899717
171.461275965
171.159995454
170.849124164
170.544380513
170.252446678
169.97355899
169.704523327
169.441656982
169.181666718
168.921785089
168.659764365
168.393799664
168.122429077
167.84444424
167.558819066
167.264655323
166.961142077
166.647525472
166.323088592
165.987134268
165.638973308
165.277919524
164.903282468
164.514364026
164.110456293
163.690840282
163.254785288
162.801548686
162.330376105
161.840501769
161.331149103
160.801531301
160.250851818
159.6783049
159.083076153
158.464343342
157.821277431
157.15304478
156.458806819
155.737721416
154.988944095
154.211629349
153.404932851
152.568012894
151.700032397
150.800161363
149.867579548
148.90147954
147.90107006
146.865579889
145.794262315
144.68640035
143.541312839
142.358361451
141.136958269
139.876576258
138.576760806
137.237142844
135.85745487
134.437549946
132.977424306
131.477244116
129.937377069
128.358429599
126.741290631
125.087182892
123.397722113
121.674985048
119.921586025
118.140762169
116.336464521
114.513454808
112.677410957
110.835054921
108.994336971
107.164819466
105.35861223
103.591271437
101.882703002
172.026965957
171.663797098
171.264058044
170.895195332
170.55769593
170.249705352
169.964454083
169.693866607
169.431615495
169.173069141
168.914800739
168.654266808
168.389553921
168.119181324
167.841961296
167.556902927
167.263145911
166.959914726
166.646484614
166.322164097
165.986272645
165.638137634
165.277083989
164.902429501
164.513482025
164.109537856
163.689880944
163.253782649
162.800501651
162.329284225
161.839364958
161.329967376
160.800304674
160.249580669
159.67699044
159.081721116
158.462951922
157.819855446
157.151598134
156.457342392
155.736247449
154.98747063
154.210168956
153.403500346
152.566626004
151.698712736
150.798935336
149.86647943
148.900544623
147.900347704
146.865127378
145.794148961
144.686709972
143.542146689
142.359841834
141.139234117
139.879827746
138.581204673
137.243039601
135.865117139
134.447352071
132.989813267
131.492751772
129.956633673
128.382178281
126.770402263
125.122670078
123.440750506
121.726878924
119.983823975
118.214956489
116.424315167
114.616662255
112.797525783
110.973230264
109.150922642
107.338781486
105.54700787
103.788658938
102.081965518
172.57675026
171.922811962
171.37063949
170.933169867
170.561685294
170.239719675
169.950758896
169.680670516
169.420357815
169.164025167
168.907776597
168.648916504
168.385517801
168.116139262
167.839648129
167.555108214
167.261708149
166.958713549
166.645428504
166.321182649
165.985322627
165.637188151
165.276114029
164.901425286
164.512434778
164.108442175
163.688733715
163.252582361
162.799248042
162.327978147
161.838007907
161.328561485
160.798852325
160.248082848
159.6754479
159.080134234
158.461321485
157.818183283
157.149887615
156.455598102
155.734475208
154.985677612
154.20836385
153.40169416
152.564832449
151.696948557
150.797220867
149.864839229
148.89900835
147.89895199
146.863916803
145.793177575
144.686043233
143.54186374
142.360037968
141.140023383
139.881347665
138.583620973
137.246551532
135.869963767
134.453819584
132.998243326
131.503550932
129.970283792
128.399247313
126.79155515
125.148678518
123.472499727
121.765370979
120.030175565
118.270384063
116.490101573
114.694092293
112.887769938
111.077122046
109.268473498
107.468340052
105.683993643
103.922219298
102.190493345
173.571996947
172.214182798
171.423446856
170.923626717
170.532826984
170.209134745
169.924811872
169.660417858
169.405144086
169.152832411
168.899641378
168.643040618
168.381275796
168.113054794
167.837365033
167.553364464
167.260313939
166.957530014
166.644329839
166.320124666
165.984264566
165.636102686
165.274984566
164.900242262
164.511193055
164.107139223
163.687368099
163.251151317
162.797746741
162.326404343
161.836359955
161.326837803
160.797052021
160.246208318
159.673501804
159.078118978
158.459239522
157.816036947
157.147679517
156.45333138
155.732153752
154.983306323
154.205948861
153.399243004
152.56235435
151.69445484
150.794725475
149.86235934
148.896564925
147.896570174
146.86162696
145.791016457
144.684055341
143.540103016
142.358570151
141.138928195
139.880720355
138.583575971
137.247226183
135.871522561
134.456459035
133.002197487
131.50909745
129.97775031
128.409018373
126.804079064
125.164473392
123.492156351
121.789561513
120.059659168
118.305997258
116.532745555
114.744712512
112.947322938
111.14647749
109.348037857
107.557500744
105.779526861
104.00902187
102.213719721
175.365107503
172.437012739
171.323502823
170.796469594
170.429434231
170.134957788
169.873631456
169.625427231
169.381253193
169.136526157
168.888530501
168.63549081
168.376155169
168.109571689
167.83496269
167.551649676
167.259006277
166.956437525
166.643402433
166.319242099
165.983360092
165.63514007
165.273943136
164.89911105
164.509967216
164.105817498
163.68595148
163.249645566
162.796162414
162.324745187
161.834628156
161.325035139
160.79517949
160.244264923
159.671486544
159.076031501
158.45707985
157.813805473
157.14537701
156.450958989
155.729713083
154.980799526
154.203378737
153.396613148
152.55966931
151.691720296
150.791948426
149.859548334
148.893730439
147.893724994
146.858786688
145.788200048
144.68128573
143.537407809
142.355982317
141.136487219
139.878474223
138.581582453
137.245554634
135.870256143
134.455697264
133.002059096
131.509723961
129.979309792
128.411709778
126.808136689
125.170173429
123.49983272
121.799601251
120.072492012
118.322114795
116.552713806
114.769191274
112.977092947
111.182545825
109.392225675
107.612839335
105.849971965
104.085294178
102.189640441
82.0890107689
78.5518508295
76.1740790913
74.2350791527
72.581269543
71.1387670796
69.8618051222
68.7204758078
67.6939824181
66.7669258356
65.9272531755
65.1650710305
64.4719768238
63.8406873195
63.2648213219
62.7387587203
62.2575365709
61.8167647117
61.4125533758
61.0414501611
60.7003849143
60.3866215562
60.0977163357
59.8314816887
59.5859553695
59.3593735333
59.1501467782
58.9568392328
58.7781506038
58.6129010117
58.4600178822
58.3185245296
58.1875303509
58.0662218362
57.9538541807
57.8497439226
57.7532629327
57.6638332913
57.5809229882
57.5040421749
57.4327410406
57.3666114293
57.3052948136
57.2484247766
57.1956579801
57.1466857086
57.1011995847
57.0589302361
57.0196293745
56.983067612
56.9490327444
56.9173276487
56.8877691078
56.8601877033
56.834425206
56.8103325946
56.78777092
56.7666213545
56.7467656512
56.7280963122
56.7105121406
56.6939185046
56.67822328
56.6633381369
56.6492357744
56.6358326644
56.6230695877
56.6108550901
56.5991256719
56.5878833592
56.5771006437
56.5666869533
56.5565976403
56.5467957344
56.5372460001
56.5279151172
56.5187727437
56.5097903075
56.5009409682
56.4921987726
56.4835388532
56.474937486
56.4663714694
56.4578188896
56.4492583141
56.4406678509
56.4320252804
56.4233089668
56.4144967515
56.4055642789
56.3964860233
56.3872360589
56.3777876306
56.3681114203
56.3581746284
56.347942237
56.3373778892
56.3264419893
56.3150910481
56.3032781851
56.2909523098
56.2780577397
56.2645334555
56.2503132744
56.235323291
56.2194819595
56.2026992189
56.1848774826
56.1659085557
56.1456722954
56.1240368592
56.1008586343
56.0759793516
56.0492240682
56.0204002357
55.9892973898
55.9556830204
55.9193011722
55.8798700178
55.8370798066
55.7905877479
55.7400147104
55.6849419886
55.6249069148
55.5593978746
55.4878470588
55.4096238478
55.3240225694
55.2302475672
55.1273935944
55.014415466
54.8900882307
54.7529299525
54.6011394577
54.4324994809
54.2439093284
54.0313294206
53.7890099844
53.5086417797
53.1779168609
52.7777092483
52.2834406481
51.6617799227
50.8760158937
49.8955930764
48.7059982275
47.310121053
45.7174891028
43.9302608632
41.9346136655
39.6988502243
37.1772169648
34.3156537215
31.0566792627
27.3599232154
23.2368705655
18.6776276777
13.4242007308
7.30103203827
1.75778384277
85.2818606691
81.234648036
78.537138306
76.4035694296
74.6196527819
73.0835829967
71.735475082
70.5380068188
69.4659687496
68.5011258793
67.6295093314
66.8398789764
66.1228592826
65.470451217
64.8757398614
64.332703033
63.8360722138
63.3812224543
62.9640816522
62.5810541832
62.2289558547
61.9049585655
61.6065429424
61.3314586892
61.0776903763
60.8434287322
60.6270447845
60.4270677985
60.2421666676
60.0711340206
59.9128723754
59.7663821111
59.6307511699
59.5051459923
59.3888020956
59.2810175673
59.1811462838
59.0885929189
59.0028079382
58.9232839513
58.8495506692
58.7811692709
58.7177300298
58.6588603539
58.6042104536
58.5534649341
58.5063397771
58.4625621537
58.4218712059
58.3840469861
58.3488562702
58.3160918496
58.2855622432
58.2570914225
58.2305151238
58.2056788305
58.1824475986
58.1606960392
58.1402948751
58.1211330176
58.1031079951
58.0861323691
58.0700978989
58.0549310942
58.0405206696
58.0268129095
58.0137527662
58.0012751089
57.9893199912
57.9778084006
57.9667395802
57.956063066
57.9457352817
57.9357171232
57.925973252
57.9164685956
57.9071731359
57.8980575031
57.8890949646
57.8802587329
57.8715247841
57.8628678421
57.8542666249
57.8456973312
57.8371401846
57.8285726863
57.8199730801
57.8113207157
57.8025924172
57.793767572
57.7848186834
57.7757232148
57.7664545728
57.7569870533
57.7472870483
57.7373251456
57.7270668342
57.7164749646
57.705510324
57.6941303519
57.6822888348
57.6699337047
57.6570103282
57.6434600104
57.6292145694
57.6142006129
57.598337459
57.5815390772
57.5637067454
57.5447337845
57.524502899
57.5028857813
57.4797432184
57.4549199704
57.4282465416
57.3995357858
57.3685871027
57.3351753336
57.2990563576
57.259960547
57.2175952055
57.1716340103
57.1217213083
57.0674661737
57.0084414412
56.9441727491
56.874136729
56.7977556384
56.71438315
56.6232858552
56.5236189282
56.4143949033
56.294424106
56.162233037
56.0160290886
55.8531800391
55.6702752327
55.4623148547
55.2219163198
54.9379055107
54.5932008162
54.1641888786
53.6187044054
52.9192581014
52.0307922494
50.929707423
49.6061944202
48.0566288611
46.2726632578
44.2343652921
41.9090063322
39.2547456506
36.2250367335
32.7707721008
28.8569373727
24.4963163924
19.6861611903
14.191781202
7.83718569357
1.97304055997
87.4984946514
83.5675694219
80.7145620199
78.4489174273
76.5641944908
74.9506686574
73.5417544833
72.2954510379
71.1833650014
70.1850572674
69.2849948087
68.470804008
67.7322757452
67.0607921966
66.448975874
65.8904566612
65.3797024514
64.9118867988
64.4827820437
64.0886712784
63.726274305
63.3926858845
63.0853236024
62.8018848535
62.5403099297
62.298751112
62.0755455844
61.8691925161
61.6783335463
61.5017360564
61.3382789331
61.1869401826
61.0467861792
60.9169628263
60.7966863066
60.6852364718
60.5819500413
60.4862155123
60.3974682501
60.3151872561
60.2388911784
60.1681361873
60.1025131876
60.0416415574
59.9851611607
59.9327315586
59.8840461872
59.8388306124
59.796827639
59.7577714447
59.7214441574
59.6876363462
59.6561500037
59.6268041451
59.5994305024
59.5738728894
59.5499768799
59.5275991969
59.5066167061
59.4869244496
59.4684167705
59.4509966671
59.4345256259
59.4189664355
59.4042323818
59.3902433889
59.3769325457
59.364235659
59.352093539
59.3404413131
59.3292429469
59.3184521976
59.3080252337
59.2979216241
59.2881051617
59.2785402991
59.2691966336
59.2600439506
59.2510556744
59.2422049928
59.2334679738
59.2248196145
59.2162390012
59.207703102
59.1991926183
59.1906860342
59.18216246
59.1736025951
59.1649840329
59.1562877034
59.1474884619
59.1385652501
59.1294926659
59.1202474577
59.1107995081
59.101121837
59.0911834136
59.080950188
59.0703866304
59.0594548047
59.0481132439
59.0363154554
59.0240125202
59.0111511001
58.9976715216
58.9835090521
58.9685920625
58.952844385
58.9361789306
58.9185020529
58.8997120832
58.8796961322
58.8583324789
58.8354874
58.8110141932
58.7847514073
58.7565270546
58.726149327
58.6934112655
58.6580848069
58.6199248891
58.5786606252
58.5339996092
58.4856203396
58.4331773569
58.3762918735
58.3145489932
58.2474948951
58.1746268772
58.0953802651
58.0091071498
57.9150541795
57.8123076063
57.6997239531
57.5758533739
57.4386058454
57.2851030549
57.1110627285
56.9099839162
56.6718261439
56.381124444
56.0154636357
55.5436392506
54.9273152059
54.1270098991
53.1102377411
51.8550963314
50.3458551139
48.5649592038
46.4874865448
44.0801017402
41.3042484294
38.1193542827
34.4827003478
30.3625947158
25.7715198393
20.7138543785
14.979192852
8.38888408739
2.1921785798
89.3085136553
85.5886875841
82.6984077334
80.360522229
78.4064553897
76.7337746017
75.2759129263
73.9891013844
72.8431655717
71.8162028803
70.8915370269
70.0559188789
69.298474961