/*--------------------------------*- C++ -*----------------------------------*\
| =========                 |                                                 |
| \\      /  F ield         | OpenFOAM: The Open Source CFD Toolbox           |
|  \\    /   O peration     | Version:  2106                                  |
|   \\  /    A nd           | Website:  www.openfoam.com                      |
|    \\/     M anipulation  |                                                 |
\*---------------------------------------------------------------------------*/
FoamFile
{
    version     2.0;
    format      ascii;
    arch        "LSB;label=32;scalar=64";
    class       volScalarField;
    location    "0.42";
    object      p;
}
// * * * * * * * * * * * * * * * * * * * * * * * * * * * * * * * * * * * * * //

dimensions      [0 2 -2 0 0 0 0];

internalField   nonuniform List<scalar> 
11200
(
150.094648727
147.166046866
146.052195493
145.524863482
145.157532949
144.862753892
144.601109723
144.352571324
144.108053482
143.862986536
143.614673287
143.361358947
143.101811387
142.835094885
142.560442446
142.277180545
141.984683292
141.682344671
141.369565905
141.045758823
140.710299797
140.362539873
140.0018208
139.627474793
139.23881633
138.835144125
138.415741946
137.979879296
137.526812146
137.05578356
136.566024321
136.056753449
135.527178318
134.976494993
134.403888664
133.808535149
133.189600757
132.546242222
131.877607162
131.182834557
130.46105502
129.71139092
128.932956561
128.124858278
127.286194386
126.416054938
125.513521304
124.577665508
123.607549107
122.602221681
121.560718695
120.48205865
119.365239357
118.209233089
117.012980386
115.775382195
114.495289936
113.171492989
111.802702937
110.387533763
108.924476781
107.411869082
105.84785315
104.230328284
102.55688441
100.824716394
99.030513759
97.1703165757
95.2393208083
93.2316118018
91.1398005072
88.9545274212
86.663593801
84.2508133597
81.6941001073
78.9617936854
76.0062937631
72.755022679
69.0542487009
64.290953156
148.30160683
146.943432579
146.152460538
145.652445403
145.261456318
144.937573062
144.653051477
144.388449159
144.132961651
143.880440543
143.627058462
143.370301719
143.108433137
142.840176104
142.56453005
142.28066004
141.987828603
141.685352895
141.372574464
141.048831534
140.713473931
140.365826288
140.005244963
139.631061889
139.242581122
138.839095648
138.419886403
137.984221057
137.531354294
137.0605282
136.570972549
136.061904846
135.532530497
134.982049355
134.409648378
133.81450364
133.195780988
132.552637141
131.884219789
131.189668003
130.468112522
129.718675919
128.940472817
128.132609967
127.294186234
126.424292406
125.522010823
124.586414713
123.616567164
122.611519672
121.570310096
120.491959912
119.375470619
118.219819061
117.023951461
115.786775818
114.507152315
113.183881185
111.815687516
110.401202189
108.938938015
107.427259673
105.864343337
104.248125865
102.576239409
100.845943802
99.0540234007
97.196640875
95.2691569245
93.2658869223
91.1797620806
89.0018260999
86.7205316144
84.3207427384
81.7820642732
79.0759878758
76.1617154532
72.9814134952
69.4322933719
65.3195060731
147.306416403
146.652215829
146.099859539
145.662241
145.290616398
144.96851401
144.679413783
144.409179925
144.14871747
143.892237541
143.635855092
143.376888319
143.113425043
142.844038146
142.567606415
142.283201115
141.990012538
141.687302063
141.374371406
141.050543766
140.715157126
140.367571988
140.007044443
139.632920895
139.244509305
138.841100106
138.421971933
137.986391378
137.533612814
137.062878557
136.573419263
136.0644546
135.535193489
134.984828939
134.412542083
133.817511926
133.198905311
132.555879469
131.887582945
131.193155625
130.471729091
129.722426852
128.944364612
128.136650402
127.298384657
126.428660097
125.526561397
124.591164656
123.621536473
122.616732642
121.575796305
120.497755411
119.381619364
118.226374665
117.030979343
115.794355839
114.515382037
113.19287999
111.825601695
110.412211213
108.951261457
107.441165642
105.880159564
104.266274808
102.597273969
100.870562844
99.0830999777
97.2312869799
95.3108098826
93.3164302903
91.2416987492
89.0785526106
86.8168971993
84.4438168605
81.942590963
79.2913598466
76.4621508424
73.4233502551
70.1389827065
66.5860302695
146.756654904
146.393273405
145.993374812
145.624383525
145.286765839
144.978662408
144.693298246
144.422593777
144.160221673
143.901554956
143.643175532
143.382551757
143.117783664
142.847403837
142.570236061
142.285297704
141.991732375
141.688763845
141.375664997
141.051735963
140.716285882
140.368624672
140.008111222
139.634022453
139.245647702
138.842279278
138.423195573
137.987661953
137.534931677
137.064246058
136.574834583
136.065915163
135.536695158
134.986372086
134.414136873
133.819163267
133.200619408
132.557663395
131.889442727
131.195097729
130.473760755
129.724556323
128.946601569
128.139006367
127.300873482
126.431298551
125.529369838
124.594167839
123.624764539
122.62022224
121.579591921
120.501911104
119.386200888
118.231462095
117.03667038
115.800770084
114.522666118
113.201213785
111.835206023
110.423357194
108.964286074
107.456494333
105.898321454
104.287907787
102.623152127
100.901655879
99.12064388
97.2768641882
95.3664638814
93.3848332313
91.326415397
89.1844811128
86.9507989513
84.6153272905
82.1659775676
79.5886521423
76.8686065289
73.9961347827
70.9748368536
67.8418940412
146.422606552
146.190810918
145.889397969
145.578420061
145.273579531
144.981555107
144.702578673
144.433452071
144.170491743
143.910407549
143.650439017
143.38834863
143.122343734
142.850975114
142.573045941
142.287539137
141.993562
141.690305287
141.377013693
141.052964666
140.717453406
140.369783681
140.009259237
139.63516956
139.246817557
138.84348692
138.424450814
137.988972194
137.536302981
137.065683946
136.576344673
136.067503746
135.538368922
134.988136564
134.415993088
133.821114625
133.202666845
132.559807813
131.891688378
131.1974493
130.476225418
129.727143543
128.949323264
128.141877176
127.303911331
126.434525257
125.532811873
124.597857329
123.628740436
122.624531623
121.584292493
120.507073211
119.391910239
118.237823126
117.043810194
115.808843
114.531859083
113.211754575
111.847371647
110.437490991
108.980809722
107.475916157
105.921273022
104.315185748
102.655760729
100.940856078
99.1680243893
97.3344438862
95.436835189
93.4713642401
91.4335344391
89.318081353
87.1188967005
84.8290619747
82.4411566759
79.9481719545
77.3459118305
74.6388185662
71.8482525582
69.0249108907
146.219213549
146.043311363
145.802116152
145.534789697
145.25760193
144.98096285
144.709272526
144.442770522
144.180005334
143.918996886
143.657710215
143.394278173
143.127075169
142.854710239
142.575990361
142.289877731
141.99545024
141.691868463
141.378349678
141.054148137
140.718540522
140.370815043
140.010262391
139.636172914
139.247836097
138.844531211
138.425528778
137.990089714
137.537464453
137.066892525
136.577602538
136.068812247
135.539728807
134.989548914
134.417459329
133.822637402
133.204251752
132.561462266
131.893420486
131.199270965
130.478149389
129.729183253
128.951494272
128.144197445
127.306402357
126.437213128
125.535728298
124.601040927
123.632238259
122.62840142
121.588603709
120.511910065
119.397374978
118.244039973
117.050930304
115.817052042
114.541387205
113.222882546
111.860447875
110.452932945
108.999122141
107.497723086
105.947352318
104.3464938
102.693480529
100.986462775
99.2233697912
97.4018680685
95.5193178194
93.5727333838
91.5587587145
89.4736822845
87.31353787
85.0743843107
82.7529368091
80.3478438257
77.8621730978
75.3080785745
72.712507863
70.1225582164
146.096096143
145.940488427
145.734186318
145.497623827
145.242148323
144.978868737
144.714255743
144.45074776
144.188615595
143.927031407
143.664661111
143.400028107
143.131702502
142.858375627
142.578875194
142.292153529
141.997265641
141.693345675
141.379585624
141.055217624
140.719499924
140.371706181
140.011117647
139.637016861
139.248685016
138.845396418
138.426418741
137.991010729
137.538421304
137.06788916
136.578642534
136.069899161
135.540866446
134.990741878
134.418713364
133.823959176
133.205648366
132.562941634
131.894991364
131.200941301
130.479926962
129.73107966
128.953525324
128.146383772
127.308769116
126.439790651
125.538553459
124.604158426
123.635702334
122.63227764
121.592971857
120.516867283
119.403039574
118.250556009
117.058473423
115.825834208
114.551662241
113.234964258
111.874712813
110.469848696
109.019270578
107.521818333
105.976262837
104.381291701
102.735493285
101.037338491
99.2851631385
97.4771535677
95.6113401974
93.6856086919
91.6977448212
89.6455426063
87.527022676
85.3408523664
83.0871004169
80.7685243469
78.3926729339
75.9751441986
73.5428128596
71.1350348481
146.022015736
145.872005583
145.68524986
145.469144445
145.229438532
144.976617749
144.717981515
144.457244675
144.195879824
143.933960546
143.670745922
143.405112426
143.135819431
142.861645573
142.581447232
142.294174478
141.998865755
141.694633713
141.380648813
141.056123923
140.720301134
140.372441179
140.011815192
139.637697684
139.249364996
138.846086439
138.427126935
137.991743196
137.539182801
137.068683665
136.579473644
136.070770408
135.541781572
134.991704865
134.41972837
133.825030827
133.206782115
132.564143386
131.896267935
131.202302383
130.481388457
129.732659506
128.955242217
128.148259741
127.310831032
126.442071338
125.541092841
124.607005055
123.638915188
122.635928451
121.597148335
120.521675881
119.408609463
118.257044099
117.066070447
115.834773308
114.562230599
113.247506918
111.88965623
110.487708721
109.040673421
107.547530834
106.007226563
104.418663877
102.780698564
101.092135355
99.3517288833
97.558193378
95.7102274774
93.8065662706
91.8460773759
89.8279309079
87.7518810152
85.6187398498
83.4311207078
81.194556806
78.9190841899
76.6213071725
74.3259046361
72.0648835441
145.979738528
145.830290871
145.653875411
145.450137555
145.22060556
144.974898261
144.720539816
144.461903461
144.201199185
143.939107938
143.67531375
143.408958659
143.138951025
142.864142088
142.58341501
142.295721526
142.000089548
141.695616522
141.381457114
141.056809791
140.720904449
140.372991928
140.012335645
139.638205089
139.249869134
138.846597104
138.427650821
137.992285258
137.539747035
137.069273521
136.58009233
136.071421155
135.54246783
134.992430478
134.420497756
133.825849215
133.20765581
132.565080448
131.897278789
131.203399491
130.482583019
129.733966324
128.956681179
128.149855043
127.312611982
126.444073505
125.543359408
124.609588493
123.641879264
122.639350554
121.601122082
120.526314976
119.414052134
118.263458407
117.073660573
115.843787007
114.572967029
113.260333104
111.905015186
110.506144721
109.062850344
107.574258396
106.039493091
104.457677797
102.827939603
101.149418325
99.4212834469
97.6427638404
95.8131965425
93.9321087015
91.9993454286
90.0152734641
87.9810877214
85.8992794125
83.7742947338
81.6134287681
79.4279313445
77.2342135356
75.0543186466
72.9144246349
145.960461144
145.810583344
145.638620675
145.440685826
145.216125496
144.974007866
144.721874644
144.464368118
144.204043831
143.941885866
143.677798874
143.411067018
143.1406806
142.865532043
142.584520602
142.296600022
142.00079321
141.696189774
141.381936031
141.05722275
140.721273256
140.373333046
140.012661289
139.638524159
139.250189196
138.846922995
138.427986445
137.992633807
137.540111284
137.069656186
136.580496041
136.071848842
135.542922794
134.992916568
134.421019568
133.826412297
133.208266858
132.565747454
131.898010855
131.204207074
130.483480918
129.734971739
128.957814573
128.15114119
127.314081032
126.445762154
125.545312262
124.611859737
123.64453469
122.642470043
121.604802645
120.530674384
119.419233356
118.269635011
117.081043406
115.852632547
114.583587729
113.273106385
111.92040144
110.524703613
109.085261056
107.601347304
106.072266024
104.497359502
102.876022003
101.207719453
99.4920191705
97.7286346854
95.9174912684
94.0588265179
92.1533324983
90.202378331
88.2083037068
86.1748618546
84.107760322
82.0153437863
79.9093352922
77.8054885249
75.7234927263
73.6852709626
145.960462703
145.810598401
145.638646801
145.440721376
145.216169756
144.97406003
144.721933789
144.46443339
144.204114487
143.941961267
143.67787849
143.411150428
143.140767486
142.865622184
142.584613867
142.296696362
142.000892639
141.696292365
141.38204191
141.057332092
140.72138629
140.37345007
140.012782687
139.638650421
139.250320993
138.847061038
138.428131634
137.992787268
137.540274439
137.069830498
136.580683613
136.07205217
135.54314492
134.993161174
134.421291103
133.826716113
133.208609382
132.566136444
131.898455876
131.20472001
130.484075716
129.735665333
128.958627625
128.152098856
127.315213907
126.447107443
125.54691517
124.613775178
123.646829348
122.645224864
121.608115853
120.534665161
119.424046332
118.275445714
117.088064805
115.861122929
114.593860243
113.28554046
111.935458192
110.542943866
109.10736358
107.628135533
106.104738735
104.5367274
102.923751701
101.265584641
99.5621592044
97.8136248827
96.0204271609
94.1834159521
92.3040190546
90.3845387946
88.4280891055
86.4392908891
84.4246594493
82.3930961016
80.3563865155
78.3295478052
76.3304818365
74.3782808491
145.979743288
145.830336446
145.653954421
145.450244982
145.220739219
144.975055534
144.720717896
144.462099806
144.201411578
143.939334478
143.675552858
143.409209081
143.139211816
142.864412594
142.583694846
142.296010541
142.000387795
141.695924226
141.381774651
141.057137685
140.721243389
140.373342796
140.012699556
139.638583533
139.250264019
138.847010561
138.428085497
137.992744426
137.540234716
137.069794608
136.580652856
136.072028524
135.543131054
134.993160491
134.421307831
133.826755455
133.208677684
132.566241423
131.898606894
131.204928404
130.484355256
129.736032786
128.959103405
128.152707808
127.31598623
126.448079857
125.548132295
124.615291204
123.64871006
122.647550096
121.610982456
120.538190599
119.428373068
118.28074652
117.094549196
115.869044986
114.603528081
113.297327547
111.949816734
110.560418057
109.128617954
107.653970235
106.136118991
104.574816225
102.969947454
101.321568553
99.6299649882
97.8957225752
96.1197303665
94.3033631072
92.448598189
90.5581178773
88.6358983527
86.6871984205
84.7190092729
82.7404837432
80.7632946753
78.8018460214
76.8728539459
74.9937576822
146.022023965
145.872082884
145.685383483
145.469325653
145.229663475
144.97688188
144.718280069
144.457573389
144.196234997
143.934339028
143.671145108
143.405530253
143.136254348
142.862096518
142.581913577
142.294655986
141.999362527
141.695146131
141.381177506
141.056669766
140.720865293
140.373025124
140.012420686
139.638327259
139.250021422
138.846773378
138.427848792
137.992505342
137.539991839
137.069547675
136.580402527
136.071776284
135.542879167
134.992912012
134.421066665
133.826526475
133.20846689
132.566056152
131.898456079
131.204822918
130.484308341
129.736060553
128.959225466
128.152948044
127.316373705
126.448649907
125.548927864
124.61636444
123.650124265
122.649382075
121.613325368
120.541157396
119.432100662
118.285400859
117.100331324
115.876198406
114.612347429
113.308170382
111.963112794
110.57668889
109.148488922
107.678200278
106.165622914
104.610696792
103.01353611
101.374455811
99.694010867
97.9730592338
96.2129210568
94.4154111924
92.5829844086
90.7189018887
88.827471933
86.9142962123
84.986593015
83.0535340353
81.1265597183
79.2196156521
77.3488332406
75.5311255207
146.096108352
145.94059974
145.734377757
145.497882324
145.242468029
144.979242963
144.714677639
144.45121129
144.189115584
143.927563479
143.665221679
143.40061434
143.132312283
142.859007503
142.579528313
142.292827571
141.99796074
141.694062343
141.380324702
141.055980281
140.720287722
140.372521176
140.011962397
139.637894645
139.249599708
138.846352967
138.427423194
137.992070445
137.539545329
137.069088609
136.579931037
136.071293416
135.54238679
134.992412796
134.420564103
133.826024977
133.207971924
132.565574466
131.897995949
131.204394488
130.483923998
129.735735379
128.958977826
128.152800286
127.31635302
126.448789364
125.549267653
124.616953375
123.651021589
122.650659668
121.615070393
120.543475532
119.435119957
118.289276452
117.105251093
115.882389763
114.620085417
113.317787538
111.97501214
110.591353643
109.166503674
107.700266395
106.192580752
104.64354688
103.053456953
101.422849479
99.7525596505
98.0437708911
96.2980945057
94.5176721806
92.705301704
90.8645825917
89.0000960745
87.1176159999
85.2243713184
83.3293454772
81.4436176057
79.5807564433
77.7567716779
75.9890713134
146.219230597
146.043460584
145.80237078
145.535131406
145.258022372
144.981452874
144.709823049
144.443373707
144.180654557
143.919686605
143.658435923
143.395036337
143.12786316
142.855526258
142.576833355
142.29074729
141.99634648
141.692791914
141.379301194
141.055128853
140.719551791
140.371858755
140.011342901
139.637295911
139.249005984
138.845753555
138.426810834
137.991440438
137.538894887
137.06841638
136.579236784
136.070577816
135.54165134
134.991659776
134.419796607
133.825246947
133.207188218
132.564791036
131.897220079
131.203635147
130.483192243
129.735044806
128.958345092
128.152245721
127.315901374
126.448470714
125.549118524
124.617018099
123.651353945
122.651324877
121.616147508
120.545060342
119.437328453
118.292249004
117.109157513
115.887435354
114.626518458
113.325907581
111.985180465
110.604006471
109.182163513
107.719558445
106.216252838
104.672493359
103.088746898
101.465742184
99.8045224235
98.1065089622
96.373576445
94.6081377961
92.8132477875
90.9927233339
89.1512877845
87.2947316296
85.4301158701
83.5660339182
81.7129999886
79.8840943696
78.0953474109
76.3654320066
146.422629366
146.191003155
145.889722495
145.578852165
145.274107668
144.982167227
144.703263309
144.434199589
144.171294145
143.911258242
143.651332694
143.389281174
143.123312131
142.851977361
142.574080955
142.288606636
141.994662334
141.691439228
141.37818219
141.054168839
140.718694813
140.371063413
140.010579198
139.636542933
139.248248062
138.844980086
138.426014662
137.990616889
137.538041092
137.067530796
136.57831889
136.069627919
135.5406705
134.99064979
134.418760042
133.824187247
133.206109821
132.563699458
131.896122003
131.202538571
130.48210671
129.733981904
128.957319002
128.151273816
127.315004942
126.447675785
125.548456849
124.616528306
123.651082946
122.651329598
121.616497049
120.545838528
119.438636898
118.294210691
117.111921329
115.891181206
114.631462715
113.332310745
111.993356063
110.6143312
109.195089501
107.735627474
106.236111508
104.696909408
103.118627753
101.502156159
99.848718125
98.1599300089
96.4378704712
94.6851571211
92.9050314471
91.1014509089
89.2791894702
87.4439440274
85.6024660383
83.7627497333
81.9344167696
80.1296217312
78.363880249
76.6570472476
146.756683795
146.393512624
145.993772014
145.624906626
145.287399383
144.979390955
144.694107835
144.423473035
144.16116134
143.90254751
143.644215004
143.383633586
143.1189046
142.848561874
142.571430399
142.28652872
141.9930016
141.690073848
141.377018847
141.053137568
140.717744342
140.370155596
140.009687282
139.635646738
139.247333796
138.844038252
138.425038862
137.989603021
137.536986603
137.066434194
136.577179496
136.068445716
135.539445975
134.989383847
134.417454016
133.822843086
133.204730389
132.562288615
131.894684723
131.201081511
130.480638509
129.732512772
128.955861306
128.149842566
127.3136183
126.446355722
125.547229967
124.615426865
123.650146161
122.650605024
121.616042071
120.545722488
119.438943805
118.295041796
117.113398955
115.893453068
114.634708501
113.336747397
111.999244412
110.621984319
109.204882239
107.748007353
106.251610922
104.716159137
103.142371294
101.531264139
99.884202556
98.2029564257
96.4897633035
94.7473952377
92.9792278089
91.1893073795
89.3824100272
87.5640871918
85.7407033437
83.9194758679
82.1087078166
80.3187810914
78.5629116771
76.8597530603
147.306456508
146.652516517
146.100339731
145.66286066
145.291356411
144.969355659
144.680340876
144.410179598
144.14977937
143.893353292
143.637018008
143.378093182
143.114667923
142.845316255
142.568918003
142.284545487
141.99139037
141.688716207
141.375827089
141.052047559
140.716709535
140.369142739
140.008668242
139.63460585
139.246260143
138.842924162
138.423879206
137.98839452
137.535727478
137.065123653
136.575817482
136.067032803
135.537983317
134.987873155
134.415897504
133.82124309
133.20308831
132.56060714
131.892967534
131.199332678
130.478862779
129.730717044
128.954054391
128.148035406
127.311824411
126.444591713
125.545516154
124.613787978
123.64861209
122.649212007
121.614834511
120.544754448
119.438280384
118.294762315
117.113599095
115.894247954
114.636235479
113.339171911
112.002765547
110.626840865
109.211359877
107.756447076
106.262418582
104.72981588
103.159444567
101.552418477
99.9102092549
98.2347006447
96.5282457498
94.7937302131
93.0346273489
91.2550469207
89.4597617503
87.654200757
85.8443813788
84.0366919168
82.2377937112
80.4552469915
78.6961667786
76.9692499894
148.301693898
146.943878401
146.153133006
145.653292508
145.262455508
144.938703828
144.654296776
144.389795587
144.134398453
143.881958981
143.628651448
143.371963487
143.110158905
142.841961704
142.566371527
142.282553241
141.989768612
141.687333143
141.374589603
141.05088931
140.715572905
140.367990778
140.007491047
139.63339036
139.244997057
138.841607556
138.422504798
137.986956989
137.534223209
137.063550562
136.574174097
136.065317986
135.536196206
134.986013171
134.41396444
133.819237674
133.201014176
132.558466742
131.890763451
131.197068442
130.476543017
129.728346937
128.951640156
128.145584662
127.30934649
126.44209802
125.543020604
124.611307561
123.646167608
122.646828766
121.612542944
120.542591226
119.436290049
118.292998526
117.112126726
115.893145704
114.635599321
113.339116552
112.003428402
110.628386636
109.213985486
107.760387108
106.267951167
104.737268992
103.1692027
101.564929544
99.9259911263
98.2543452778
96.5524183148
94.8231845085
93.0701915848
91.2976075946
89.5102372914
87.7134980731
85.9132871676
84.1154716152
82.3255814367
80.5483801206
78.7786714702
76.9869532003
150.094802363
147.166705226
146.053178656
145.526110063
145.159013276
144.864443612
144.602990213
144.354628697
144.110277297
143.865369067
143.617209107
143.364044711
143.104645774
142.838078677
142.563578635
142.280474367
141.9881421
141.685977228
141.373377207
141.049734627
140.714443953
140.366865572
140.00633055
139.632173652
139.243712754
138.840248688
138.421067666
137.985444723
137.532637523
137.061891692
136.572442315
136.063513721
135.534319961
134.984065486
134.411945848
133.817148409
133.198853279
132.556234348
131.8884603
131.194695617
130.474101994
129.725839825
128.949069789
128.142954675
127.30666145
126.439363601
125.540243811
124.608496995
123.643333747
122.643984338
121.609703484
120.539775627
119.43352128
118.290304281
117.109540365
115.890707214
114.633356236
113.337126427
112.001760517
110.627123953
109.213227128
107.76025132
106.268578742
104.73882717
103.171889448
101.568977963
99.9316741332
98.2619852059
96.5624081396
94.835948234
93.0862104697
91.317431701
89.5345009499
87.7429369384
85.9487857773
84.1585445911
82.3786344084
80.6138386559
78.8436981728
76.9437629488
56.8969157401
53.3447935784
50.9533656065
48.9959558952
47.3239215293
45.8670899576
44.5814761058
43.437373804
42.413110862
41.4919415238
40.6604601364
39.9076616933
39.2243445544
38.6027095913
38.0360768054
37.5186766909
37.0454919907
36.6121343796
36.2147468335
35.8499245355
35.51465051
35.2062421882
34.9223068457
34.6607041103
34.4195140375
34.1970099528
33.9916351146
33.8019826997
33.6267784958
33.4648660325
33.3151936315
33.176803125
33.0488199577
32.930444311
32.8209431979
32.719643399
32.6259251127
32.5392164452
32.4589886796
32.3847519836
32.31605136
32.2524627699
32.1935878982
32.1390477539
32.0884910405
32.0416863465
31.9986390645
31.9589325705
31.9222283411
31.8882358464
31.8567282625
31.8275204449
31.8004393888
31.7753237228
31.7520305508
31.7304393928
31.7103988025
31.691778457
31.6744628689
31.6583514846
31.6433403328
31.6293278344
31.6162269125
31.6039592781
31.5924527769
31.5816420501
31.5714659468
31.5618683049
31.5527980336
31.5442040543
31.5360493441
31.5282836181
31.5208758545
31.5137891634
31.5069924006
31.5004576361
31.494158605
31.4880706643
31.4821724085
31.4764433411
31.4708649548
31.4654215232
31.4601007204
31.4548956884
31.4497939888
31.4447821789
31.4398506232
31.4349870799
31.4301805564
31.4254230603
31.4207194247
31.4160677951
31.4114445808
31.4068422181
31.4022557832
31.3976810871
31.3931146848
31.3885527181
31.3839912523
31.3794260393
31.3748530519
31.3702684481
31.3656686439
31.361050452
31.3564108701
31.351746981
31.3470558545
31.3423345653
31.3375802641
31.332790347
31.3279625551
31.3230948801
31.3181854119
31.3132321732
31.3082330383
31.3031859641
31.2980891362
31.2929414066
31.2877423439
31.2824922947
31.2771918769
31.2718413234
31.2664385223
31.2609698733
31.2554045178
31.2496522649
31.2443719913
31.2393141011
31.2341186588
31.228912534
31.2237861596
31.2187958424
31.213987599
31.2094248232
31.205165851
31.2012719616
31.1977969759
31.1947853692
31.1922465674
31.1901599814
31.1887319468
31.1875115293
31.1865532646
31.1852067222
31.1818300831
31.1722164688
31.1463089582
31.0824281094
30.9393054933
30.6463808698
30.0984227989
29.1626187429
27.7063190617
25.6367673855
22.9279344316
19.6359380502
15.8793730572
11.6265516816
6.60227251963
1.57011289172
60.0782640831
56.0254593584
53.3134842595
51.1611329436
49.3591887147
47.8092412776
46.4530765956
45.2534606329
44.1842195643
43.2257204438
42.3626256885
41.5825910328
40.8754621283
40.2327493335
39.647261329
39.1128454095
38.6241934194
38.1766920627
37.7663086715
37.3894996601
37.0431356949
36.7244434536
36.4309543887
36.160464365
35.9109995511
35.6807860891
35.4682259505
35.2718757014
35.0904287182
34.922698167
34.7676058575
34.6241685064
34.4914887197
34.3687455448
34.255186254
34.1501200966
34.0529102195
33.9629706762
33.8797602478
33.8027789915
33.7315666303
33.6656989025
33.6047865563
33.5484753035
33.4964394253
33.4483485538
33.4037508373
33.3624707265
33.3242715755
33.2889350941
33.2562444566
33.225993382
33.1979888466
33.1720526984
33.1480164596
33.1257231488
33.1050350162
33.0858205899
33.0679595446
33.0513315451
33.0358341158
33.0213767539
33.0078714124
32.9952379157
32.98340116
32.972292023
32.961848131
32.9520089436
32.9427273658
32.9339338166
32.9256141621
32.9176894333
32.9101463964
32.902937943
32.896032531
32.8894015515
32.8830182545
32.8768556447
32.8708920797
32.8651070041
32.8594813599
32.853999835
32.8486436062
32.8433936597
32.8382380897
32.8331699757
32.8281785286
32.8232548949
32.8183904083
32.8135719098
32.808789939
32.8040348246
32.7993040704
32.7945952001
32.7899040304
32.7852263655
32.7805589747
32.7758977296
32.7712390937
32.766578813
32.7619128678
32.7572379169
32.7525499307
32.7478458818
32.7431228672
32.7383774355
32.733606655
32.7288075644
32.7239769703
32.719112255
32.7142111989
32.7092716019
32.7042915226
32.6992691388
32.6942020459
32.6890883779
32.6839270069
32.6787163967
32.6734577212
32.6681523205
32.6628027341
32.65741345
32.6519903453
32.6465407264
32.6410898873
32.6356433802
32.6302452727
32.6247081128
32.6193011679
32.6140884031
32.6089651567
32.604027944
32.5993262675
32.5949302251
32.5909079515
32.5873367842
32.5842870565
32.5818179526
32.5799394493
32.5787343815
32.5781605846
32.5780926579
32.5782589231
32.5778392724
32.5746736462
32.5635706736
32.5324926735
32.4565025757
32.2893712148
31.9542209034
31.3397115014
30.3100362446
28.7356435775
26.5335914316
23.6897309974
20.2646852326
16.3750465898
12.0043851233
6.89127894068
1.70362347065
62.2856938721
58.3522633388
55.4851207561
53.201195377
51.2992309902
49.6727497992
48.2567191032
47.0091241991
45.9005433347
44.9091155587
44.0179458892
43.2135816699
42.4850666507
41.8233231679
41.2207237723
40.6707878667
40.1679582622
39.7074303404
39.2850223851
38.8970733081
38.5403597321
38.2120317751
37.9095578443
37.6306806498
37.3733809234
37.135845571
36.9164419692
36.7136957153
36.5262724512
36.352960054
36.1926569259
36.0443582048
35.9071462523
35.7801812339
35.6626924717
35.5539725418
35.4533689368
35.3602806481
35.2741525127
35.1944707817
35.120760947
35.052583711
34.9895314958
34.9312263183
34.8773197261
34.8274912099
34.7813740939
34.738604337
34.6990433489
34.6624699852
34.6286424577
34.5973429167
34.5683722015
34.5415474756
34.5166996592
34.4936720714
34.4723189522
34.4525028208
34.4340981888
34.4169801286
34.4010400454
34.38617934
34.3723073956
34.3593400462
34.3472004202
34.3358139296
34.325117125
34.3150450624
34.3055524746
34.2965682571
34.2880601878
34.2799778631
34.2722856756
34.2649385645
34.257909125
34.2511639431
34.2446761065
34.2384154191
34.2323618547
34.2264925457
34.220784312
34.2152164568
34.2097801927
34.2044648586
34.1992560767
34.1941419639
34.1891101648
34.1841500837
34.1792513246
34.1744039326
34.1696002441
34.1648320049
34.1600916434
34.1553733553
34.1506720604
34.1459829929
34.1413026194
34.1366265329
34.1319511563
34.1272722563
34.1225857572
34.117888347
34.1131760488
34.108445551
34.1036938159
34.0989173274
34.094112906
34.0892776033
34.0844083329
34.079502503
34.0745580136
34.0695727722
34.0645448237
34.0594725042
34.0543536255
34.0491864344
34.0439702621
34.0387040727
34.033389352
34.0280282775
34.0226241332
34.0171823142
34.0117102156
34.0062170865
34.0007222917
33.9952258998
33.9897450899
33.9843185035
33.9789843424
33.9737856149
33.9685264037
33.9635738398
33.9589340108
33.9546799179
33.9508606812
33.9475745957
33.9449111831
33.9429460514
33.9416796623
33.9411600918
33.941422571
33.9422729763
33.9433359959
33.9435402388
33.9401487898
33.9269246006
33.8898255083
33.8006480569
33.608409559
33.2304004011
32.5500112105
31.4293959993
29.7425522243
27.4156379229
24.4446222084
20.8928186194
16.8735042201
12.3847458189
7.17988475853
1.83491805154
64.0898689247
60.36516484
57.4611852906
55.1060099752
53.1359182456
51.4515702529
49.9878028217
48.7007354372
47.5591207558
46.5396331618
45.6242605999
44.7987139914
44.0514133275
43.3728151019