/*--------------------------------*- C++ -*----------------------------------*\
| =========                 |                                                 |
| \\      /  F ield         | OpenFOAM: The Open Source CFD Toolbox           |
|  \\    /   O peration     | Version:  2106                                  |
|   \\  /    A nd           | Website:  www.openfoam.com                      |
|    \\/     M anipulation  |                                                 |
\*---------------------------------------------------------------------------*/
FoamFile
{
    version     2.0;
    format      ascii;
    arch        "LSB;label=32;scalar=64";
    class       volScalarField;
    location    "0.142";
    object      pB;
}
// * * * * * * * * * * * * * * * * * * * * * * * * * * * * * * * * * * * * * //

dimensions      [1 1 -3 0 0 -1 0];

internalField   nonuniform List<scalar> 
800
(
-3.35329e-13
-1.22806e-12
-2.28379e-12
-3.33952e-12
-4.11631e-12
-4.61415e-12
-5.39094e-12
-6.16773e-12
-7.22346e-12
-8.27919e-12
-9.61387e-12
-1.09485e-11
-1.22832e-11
-1.3339e-11
-1.43947e-11
-1.54504e-11
-1.65061e-11
-1.75619e-11
-1.83387e-11
-1.91155e-11
-1.98922e-11
-2.0948e-11
-2.20037e-11
-2.33384e-11
-2.46731e-11
-2.57288e-11
-2.65056e-11
-2.72824e-11
-2.80592e-11
-2.8557e-11
-2.93338e-11
-3.01106e-11
-3.06084e-11
-3.08273e-11
-3.10462e-11
-3.12651e-11
-3.1484e-11
-3.17029e-11
-3.19218e-11
-3.21407e-11
-3.26386e-11
-3.36943e-11
-3.475e-11
-3.58058e-11
-3.68615e-11
-3.79172e-11
-3.8973e-11
-4.00287e-11
-4.10844e-11
-4.21402e-11
-4.31959e-11
-4.42516e-11
-4.53074e-11
-4.63631e-11
-4.74188e-11
-4.84745e-11
-4.95303e-11
-5.0586e-11
-5.16417e-11
-5.26975e-11
-5.37532e-11
-5.48089e-11
-5.55857e-11
-5.63625e-11
-5.71393e-11
-5.79161e-11
-5.89718e-11
-6.00276e-11
-6.08043e-11
-6.15811e-11
-6.26369e-11
-6.36926e-11
-6.50273e-11
-6.63619e-11
-6.74177e-11
-6.81945e-11
-6.89713e-11
-6.9748e-11
-7.08038e-11
-7.18595e-11
-7.31942e-11
-7.45289e-11
-7.58635e-11
-7.71982e-11
-7.85329e-11
-8.01465e-11
-8.14812e-11
-8.28158e-11
-8.38716e-11
-8.49273e-11
-8.5983e-11
-8.70388e-11
-8.83734e-11
-8.94292e-11
-9.04849e-11
-9.15406e-11
-9.23174e-11
-9.30942e-11
-9.3871e-11
-9.46478e-11
-9.57035e-11
-9.67593e-11
-9.80939e-11
-9.94286e-11
-1.00484e-10
-1.01261e-10
-1.01759e-10
-1.02536e-10
-1.03034e-10
-1.0381e-10
-1.04866e-10
-1.05922e-10
-1.07257e-10
-1.08312e-10
-1.09089e-10
-1.09866e-10
-1.10643e-10
-1.11698e-10
-1.12754e-10
-1.1381e-10
-1.14866e-10
-1.15921e-10
-1.16977e-10
-1.18033e-10
-1.19088e-10
-1.20144e-10
-1.212e-10
-1.22256e-10
-1.23311e-10
-1.24367e-10
-1.25423e-10
-1.26479e-10
-1.27534e-10
-1.28311e-10
-1.29088e-10
-1.30144e-10
-1.31478e-10
-1.32813e-10
-1.34148e-10
-1.35482e-10
-1.36817e-10
-1.38152e-10
-1.39207e-10
-1.40263e-10
-1.41319e-10
-1.42375e-10
-1.43151e-10
-1.43928e-10
-1.44426e-10
-1.44924e-10
-1.45422e-10
-1.46477e-10
-1.47533e-10
-1.48589e-10
-1.49645e-10
-1.50421e-10
-1.5064e-10
-1.5058e-10
-1.5052e-10
-1.5046e-10
-1.504e-10
-1.5034e-10
-1.5028e-10
-1.5022e-10
-1.5016e-10
-1.49542e-10
-1.48645e-10
-1.48027e-10
-1.47688e-10
-1.47628e-10
-1.47568e-10
-1.47508e-10
-1.47448e-10
-1.47667e-10
-1.47886e-10
-1.47826e-10
-1.47766e-10
-1.47706e-10
-1.47925e-10
-1.47865e-10
-1.48084e-10
-1.48302e-10
-1.48521e-10
-1.4874e-10
-1.4868e-10
-1.48899e-10
-1.49118e-10
-1.49616e-10
-1.50114e-10
-1.50333e-10
-1.50552e-10
-1.5077e-10
-1.50989e-10
-1.51208e-10
-1.51148e-10
-1.51088e-10
-1.51028e-10
-1.50968e-10
-1.50908e-10
-1.50848e-10
-1.50788e-10
-1.50728e-10
-1.50389e-10
-1.5005e-10
-1.49711e-10
-1.49651e-10
-1.49591e-10
-1.49531e-10
-1.49471e-10
-1.49411e-10
-1.49351e-10
-1.49849e-10
-1.50346e-10
-1.50844e-10
-1.51063e-10
-1.51282e-10
-1.51501e-10
-1.51999e-10
-1.52497e-10
-1.52715e-10
-1.52934e-10
-1.53432e-10
-1.5393e-10
-1.54707e-10
-1.55484e-10
-1.5626e-10
-1.57037e-10
-1.57814e-10
-1.5887e-10
-1.59925e-10
-1.60981e-10
-1.62037e-10
-1.63093e-10
-1.64148e-10
-1.65204e-10
-1.6626e-10
-1.67316e-10
-1.68371e-10
-1.69427e-10
-1.70483e-10
-1.71539e-10
-1.72594e-10
-1.7365e-10
-1.74706e-10
-1.75761e-10
-1.76538e-10
-1.77036e-10
-1.77534e-10
-1.77753e-10
-1.77972e-10
-1.7847e-10
-1.78967e-10
-1.79186e-10
-1.79126e-10
-1.79345e-10
-1.79843e-10
-1.80341e-10
-1.80839e-10
-1.81616e-10
-1.82671e-10
-1.83727e-10
-1.85341e-10
-1.86675e-10
-1.87731e-10
-1.88787e-10
-1.89842e-10
-1.90619e-10
-1.91396e-10
-1.92173e-10
-1.9295e-10
-1.93447e-10
-1.93666e-10
-1.93606e-10
-1.93546e-10
-1.93486e-10
-1.93426e-10
-1.93645e-10
-1.94422e-10
-1.95199e-10
-1.96254e-10
-1.9731e-10
-1.98366e-10
-1.99422e-10
-2.00477e-10
-2.01533e-10
-2.02589e-10
-2.03923e-10
-2.05537e-10
-2.06872e-10
-2.07927e-10
-2.08983e-10
-2.10039e-10
-2.11095e-10
-2.1215e-10
-2.13206e-10
-2.14262e-10
-2.15318e-10
-2.16373e-10
-2.17429e-10
-2.18485e-10
-2.19541e-10
-2.20596e-10
-2.21373e-10
-2.2215e-10
-2.22927e-10
-2.23424e-10
-2.23922e-10
-2.2442e-10
-2.25197e-10
-2.25974e-10
-2.26751e-10
-2.27527e-10
-2.28304e-10
-2.2936e-10
-2.30416e-10
-2.31471e-10
-2.32527e-10
-2.33583e-10
-2.34639e-10
-2.35694e-10
-2.3675e-10
-2.37806e-10
-2.38861e-10
-2.39917e-10
-2.40973e-10
-2.42029e-10
-2.43084e-10
-2.4414e-10
-2.45196e-10
-2.4653e-10
-2.47586e-10
-2.48642e-10
-2.49977e-10
-2.51032e-10
-2.52088e-10
-2.53144e-10
-2.54479e-10
-2.56092e-10
-2.57706e-10
-2.59319e-10
-2.60933e-10
-2.61989e-10
-2.63044e-10
-2.641e-10
-2.64877e-10
-2.65375e-10
-2.66152e-10
-2.66928e-10
-2.67426e-10
-2.67924e-10
-2.68701e-10
-2.69757e-10
-2.70533e-10
-2.71589e-10
-2.72645e-10
-2.73701e-10
-2.74477e-10
-2.75254e-10
-2.75473e-10
-2.75134e-10
-2.74795e-10
-2.73619e-10
-2.72443e-10
-2.71268e-10
-2.70092e-10
-2.69753e-10
-2.70251e-10
-2.71585e-10
-2.73199e-10
-2.75092e-10
-2.76705e-10
-2.7804e-10
-2.79096e-10
-2.79036e-10
-2.78697e-10
-2.78079e-10
-2.76903e-10
-2.7489e-10
-2.7232e-10
-2.68912e-10
-2.64668e-10
-2.59308e-10
-2.52553e-10
-2.44125e-10
-2.33465e-10
-2.20853e-10
-2.06288e-10
-1.8977e-10
-1.72136e-10
-1.53666e-10
-1.34638e-10
-1.1561e-10
-9.65814e-11
-7.75532e-11
-5.93618e-11
-4.17283e-11
-2.54896e-11
-1.06455e-11
2.52486e-12
1.37426e-11
2.32868e-11
3.14362e-11
3.84698e-11
4.46666e-11
5.00266e-11
5.45497e-11
5.8236e-11
6.13644e-11
6.44929e-11
6.79002e-11
7.13076e-11
7.49939e-11
7.9517e-11
8.5156e-11
9.19106e-11
9.97811e-11
1.09604e-10
1.2138e-10
1.35108e-10
1.50789e-10
1.68144e-10
1.86614e-10
2.05642e-10
2.2467e-10
2.43141e-10
2.60495e-10
2.76455e-10
2.9102e-10
3.03075e-10
3.12898e-10
3.2021e-10
3.24733e-10
3.27025e-10
3.27085e-10
3.24635e-10
3.20232e-10
3.14992e-10
3.09194e-10
3.03396e-10
2.97598e-10
2.9208e-10
2.87676e-10
2.8411e-10
2.81102e-10
2.78651e-10
2.76759e-10
2.75424e-10
2.74369e-10
2.73313e-10
2.72257e-10
2.71201e-10
2.70146e-10
2.68811e-10
2.66918e-10
2.64747e-10
2.62575e-10
2.60404e-10
2.58511e-10
2.56898e-10
2.55842e-10
2.54786e-10
2.54009e-10
2.53233e-10
2.52735e-10
2.52237e-10
2.51739e-10
2.50962e-10
2.50185e-10
2.49409e-10
2.48353e-10
2.47297e-10
2.45963e-10
2.44907e-10
2.43572e-10
2.42516e-10
2.41461e-10
2.40684e-10
2.40186e-10
2.39688e-10
2.3919e-10
2.38414e-10
2.37637e-10
2.36581e-10
2.35246e-10
2.33633e-10
2.31461e-10
2.29569e-10
2.27955e-10
2.2662e-10
2.25565e-10
2.24788e-10
2.2429e-10
2.23792e-10
2.23294e-10
2.22518e-10
2.21462e-10
2.20406e-10
2.1935e-10
2.18295e-10
2.17239e-10
2.16183e-10
2.15127e-10
2.14072e-10
2.13016e-10
2.1196e-10
2.11183e-10
2.10686e-10
2.10188e-10
2.0969e-10
2.08913e-10
2.07857e-10
2.06802e-10
2.05746e-10
2.0469e-10
2.03913e-10
2.03137e-10
2.0236e-10
2.01862e-10
2.01364e-10
2.00866e-10
2.00368e-10
1.99592e-10
1.98815e-10
1.98038e-10
1.97261e-10
1.96763e-10
1.96545e-10
1.96326e-10
1.96107e-10
1.95888e-10
1.95948e-10
1.95729e-10
1.9551e-10
1.9557e-10
1.95351e-10
1.94574e-10
1.93519e-10
1.92742e-10
1.92244e-10
1.91467e-10
1.90691e-10
1.89635e-10
1.88579e-10
1.87523e-10
1.86468e-10
1.85691e-10
1.85193e-10
1.84416e-10
1.8336e-10
1.82305e-10
1.81528e-10
1.81309e-10
1.81369e-10
1.81429e-10
1.8121e-10
1.80433e-10
1.79378e-10
1.78322e-10
1.77266e-10
1.76489e-10
1.75992e-10
1.75494e-10
1.75275e-10
1.75056e-10
1.74558e-10
1.7406e-10
1.73562e-10
1.73065e-10
1.72567e-10
1.72069e-10
1.71292e-10
1.70236e-10
1.69181e-10
1.68404e-10
1.67906e-10
1.67408e-10
1.6691e-10
1.66691e-10
1.66751e-10
1.66811e-10
1.6715e-10
1.67211e-10
1.66992e-10
1.66773e-10
1.66554e-10
1.66335e-10
1.66116e-10
1.65897e-10
1.6512e-10
1.64065e-10
1.63288e-10
1.62511e-10
1.62013e-10
1.61515e-10
1.61017e-10
1.6052e-10
1.59743e-10
1.58966e-10
1.58189e-10
1.57691e-10
1.57473e-10
1.57254e-10
1.57035e-10
1.56537e-10
1.5576e-10
1.55262e-10
1.54764e-10
1.54545e-10
1.54606e-10
1.54666e-10
1.54726e-10
1.54786e-10
1.54567e-10
1.54348e-10
1.54129e-10
1.5391e-10
1.53691e-10
1.53193e-10
1.52974e-10
1.52756e-10
1.52537e-10
1.52597e-10
1.52657e-10
1.52717e-10
1.52498e-10
1.51721e-10
1.50665e-10
1.49331e-10
1.47996e-10
1.4694e-10
1.45885e-10
1.45666e-10
1.45447e-10
1.45507e-10
1.45567e-10
1.45627e-10
1.45687e-10
1.45747e-10
1.45807e-10
1.45867e-10
1.45927e-10
1.45987e-10
1.46326e-10
1.46665e-10
1.47004e-10
1.47064e-10
1.47124e-10
1.46905e-10
1.46686e-10
1.46467e-10
1.46527e-10
1.46309e-10
1.45811e-10
1.45313e-10
1.44815e-10
1.44038e-10
1.42983e-10
1.41927e-10
1.40871e-10
1.39815e-10
1.3876e-10
1.37704e-10
1.36648e-10
1.35871e-10
1.35095e-10
1.34039e-10
1.32983e-10
1.31927e-10
1.30872e-10
1.30095e-10
1.29039e-10
1.27983e-10
1.26928e-10
1.25872e-10
1.24816e-10
1.24039e-10
1.23263e-10
1.22486e-10
1.2143e-10
1.20374e-10
1.19319e-10
1.18263e-10
1.17207e-10
1.16151e-10
1.15096e-10
1.1404e-10
1.12984e-10
1.11928e-10
1.10873e-10
1.09817e-10
1.08761e-10
1.07706e-10
1.0665e-10
1.05594e-10
1.04538e-10
1.03483e-10
1.02427e-10
1.01371e-10
1.00315e-10
9.92597e-11
9.8204e-11
9.71482e-11
9.60925e-11
9.55947e-11
9.48179e-11
9.37622e-11
9.27064e-11
9.13717e-11
9.00371e-11
8.84235e-11
8.70888e-11
8.57541e-11
8.44194e-11
8.33637e-11
8.25869e-11
8.18101e-11
8.13123e-11
8.05355e-11
7.97587e-11
7.8703e-11
7.76472e-11
7.65915e-11
7.55358e-11
7.4759e-11
7.39822e-11
7.32054e-11
7.21497e-11
7.10939e-11
7.00382e-11
6.89825e-11
6.79267e-11
6.6871e-11
6.58153e-11
6.44806e-11
6.31459e-11
6.20902e-11
6.10345e-11
5.96998e-11
5.83651e-11
5.73094e-11
5.62537e-11
5.54769e-11
5.47001e-11
5.36443e-11
5.28676e-11
5.20908e-11
5.1035e-11
4.99793e-11
4.89236e-11
4.81468e-11
4.737e-11
4.65932e-11
4.60954e-11
4.53186e-11
4.42628e-11
4.32071e-11
4.24303e-11
4.13746e-11
4.03189e-11
3.95421e-11
3.87653e-11
3.79885e-11
3.72117e-11
3.6156e-11
3.51002e-11
3.40445e-11
3.29888e-11
3.19331e-11
3.08773e-11
2.98216e-11
2.87659e-11
2.77101e-11
2.66544e-11
2.55987e-11
2.45429e-11
2.34872e-11
2.27104e-11
2.16547e-11
2.05989e-11
1.95432e-11
1.84875e-11
1.74318e-11
1.6376e-11
1.53203e-11
1.42646e-11
1.34878e-11
1.2711e-11
1.16553e-11
1.08785e-11
1.01017e-11
9.04594e-12
7.99021e-12
7.21342e-12
6.43663e-12
5.3809e-12
4.32517e-12
3.26944e-12
2.21371e-12
1.15798e-12
2.65246e-13
)
;

boundaryField
{
    left
    {
        type            fixedValue;
        value           uniform 0;
    }
    right
    {
        type            fixedValue;
        value           uniform 0;
    }
    empty
    {
        type            empty;
    }
}


// ************************************************************************* //
