/*--------------------------------*- C++ -*----------------------------------*\
| =========                 |                                                 |
| \\      /  F ield         | OpenFOAM: The Open Source CFD Toolbox           |
|  \\    /   O peration     | Version:  2106                                  |
|   \\  /    A nd           | Website:  www.openfoam.com                      |
|    \\/     M anipulation  |                                                 |
\*---------------------------------------------------------------------------*/
FoamFile
{
    version     2.0;
    format      ascii;
    arch        "LSB;label=32;scalar=64";
    class       surfaceScalarField;
    location    "0.5";
    object      phi;
}
// * * * * * * * * * * * * * * * * * * * * * * * * * * * * * * * * * * * * * //

dimensions      [0 3 -1 0 0 0 0];

oriented        oriented;

internalField   nonuniform List<scalar> 
18840
(
3.37543049007e-05
1.62456951038e-05
2.25359621435e-05
1.12183414665e-05
1.63023778838e-05
6.23358452616e-06
1.28098250658e-05
3.49255321739e-06
1.08065804742e-05
2.00324495172e-06
9.60476910897e-06
1.20181066594e-06
8.85167861511e-06
7.53090664828e-07
8.36503105593e-06
4.8664790367e-07
8.04518645998e-06
3.1984447763e-07
7.83374215771e-06
2.11444151097e-07
7.69428225501e-06
1.39460006979e-07
7.60308061032e-06
9.12016542055e-08
7.54426562359e-06
5.88148636483e-08
7.5070773584e-06
3.7188254853e-08
7.48418943416e-06
2.28879098733e-08
7.47062394119e-06
1.35654811149e-08
7.46302144576e-06
7.60250862157e-09
7.4591387245e-06
3.88275176734e-09
7.45749902729e-06
1.63974621779e-09
7.45714596955e-06
3.53104519098e-10
7.45748335968e-06
-3.37351139433e-10
7.45813442739e-06
-6.51097768493e-10
7.45888640784e-06
-7.52047374845e-10
7.45962010815e-06
-7.33736305929e-10
7.46027660182e-06
-6.56490050954e-10
7.46083311471e-06
-5.56503080435e-10
7.46128731415e-06
-4.54234473071e-10
7.46164755145e-06
-3.60247392482e-10
7.46192674493e-06
-2.79178473955e-10
7.46213895346e-06
-2.12186260528e-10
7.46229753241e-06
-1.58549482214e-10
7.46241418386e-06
-1.16654439047e-10
7.46249877408e-06
-8.45913077312e-11
7.46255929088e-06
-6.04947526697e-11
7.46260199283e-06
-4.26831455855e-11
7.46263170342e-06
-2.97166955051e-11
7.462652068e-06
-2.03891483596e-11
7.46266583393e-06
-1.3761109973e-11
7.46267499738e-06
-9.14328237601e-12
7.46268098669e-06
-5.98667720911e-12
7.46268485668e-06
-3.86854924285e-12
7.46268735984e-06
-2.51153878053e-12
7.46268891471e-06
-1.57065557592e-12
7.462689822e-06
-9.25151738282e-13
7.46269037094e-06
-5.7253609614e-13
7.46269073426e-06
-3.81640435886e-13
7.46269099952e-06
-2.77323187522e-13
7.4626912321e-06
-2.14899392e-13
7.46269146541e-06
-1.88711354695e-13
7.46269170219e-06
-1.99235183235e-13
7.46269194346e-06
-2.20487666269e-13
7.4626922067e-06
-2.43691726468e-13
7.46269251126e-06
-2.7928163688e-13
7.46269284934e-06
-3.34536001087e-13
7.46269320668e-06
-3.8891559814e-13
7.46269359972e-06
-4.31529752381e-13
7.46269404181e-06
-4.69107587329e-13
7.4626945243e-06
-5.10439510739e-13
7.46269503999e-06
-5.47640352955e-13
7.46269558693e-06
-5.70482948562e-13
7.46269617154e-06
-5.8349111172e-13
7.46269679094e-06
-5.95807549586e-13
7.46269743724e-06
-6.13578464648e-13
7.46269810058e-06
-6.41641803574e-13
7.4626987794e-06
-6.76080675723e-13
7.46269948605e-06
-7.17100735066e-13
7.46270023224e-06
-7.64309782985e-13
7.46270101911e-06
-8.19630367329e-13
7.46270184211e-06
-8.71895534661e-13
7.46270271093e-06
-9.1516731411e-13
7.46270363612e-06
-9.55019501386e-13
7.46270461314e-06
-9.94506240233e-13
7.46270563096e-06
-1.02719000521e-12
7.46270668673e-06
-1.05378508772e-12
7.46270778082e-06
-1.08944211928e-12
7.46270890421e-06
-1.13510534955e-12
7.46271005611e-06
-1.17358062914e-12
7.46271125597e-06
-1.2040639088e-12
7.46271251496e-06
-1.24319675334e-12
7.46271382154e-06
-1.29786085028e-12
7.46271515857e-06
-1.35568547385e-12
7.4627165305e-06
-1.40557517746e-12
7.46271795823e-06
-1.45274997256e-12
7.46271944788e-06
-1.50350107467e-12
7.46272098942e-06
-1.55835126937e-12
7.46272256683e-06
-1.61284410208e-12
7.46272417598e-06
-1.66159455808e-12
7.46272583459e-06
-1.71151878735e-12
7.46272755955e-06
-1.77201121707e-12
7.46272935377e-06
-1.8336342465e-12
7.46273121688e-06
-1.87705520972e-12
7.46273314888e-06
-1.90758385504e-12
7.46273514593e-06
-1.96196381923e-12
7.46273719915e-06
-2.05354405011e-12
7.46273932525e-06
-2.15555705551e-12
7.46274156751e-06
-2.25426780699e-12
7.46274393995e-06
-2.36088941856e-12
7.46274643187e-06
-2.48497072018e-12
7.46274905822e-06
-2.6305535551e-12
7.46275186127e-06
-2.81398687337e-12
7.46275491852e-06
-3.07482206639e-12
7.46275826559e-06
-3.37983309631e-12
7.46276195625e-06
-3.73156520664e-12
7.46276608273e-06
-4.15466676016e-12
7.46277071875e-06
-4.67272691294e-12
7.46277599686e-06
-5.31380299809e-12
7.46278209088e-06
-6.11965744173e-12
7.46278918094e-06
-7.11033821508e-12
7.46279749806e-06
-8.31155542585e-12
7.46280731931e-06
-9.77670832431e-12
7.46281906173e-06
-1.163600438e-11
7.4628331416e-06
-1.39809955225e-11
7.46285012187e-06
-1.68981476067e-11
7.46287071151e-06
-2.05144940541e-11
7.46289579662e-06
-2.50038364231e-11
7.46292644358e-06
-3.05922756116e-11
7.46296397072e-06
-3.75126881273e-11
7.46301004994e-06
-4.60715747611e-11
7.46306675014e-06
-5.66539628691e-11
7.46313658434e-06
-6.97407834223e-11
7.46322266054e-06
-8.59368612212e-11
7.46332885697e-06
-1.06028417257e-10
7.46346002191e-06
-1.31017781473e-10
7.4636226735e-06
-1.62542936342e-10
7.46382747453e-06
-2.04664375066e-10
7.46407783228e-06
-2.50191925276e-10
7.46438602786e-06
-3.08053588729e-10
7.46476711818e-06
-3.81087791157e-10
7.4652389169e-06
-4.7184705895e-10
7.46582330759e-06
-5.84300190952e-10
7.46654710976e-06
-7.23578160057e-10
7.46744355539e-06
-8.96146544123e-10
7.46855384443e-06
-1.11002321446e-09
7.46992916712e-06
-1.37510306094e-09
7.47163311632e-06
-1.70375802581e-09
7.47374456576e-06
-2.11132227561e-09
7.47636163055e-06
-2.61691940418e-09
7.47960622304e-06
-3.24447012358e-09
7.48363014409e-06
-4.02384905138e-09
7.48862277406e-06
-4.9925854645e-09
7.49482051362e-06
-6.19776533043e-09
7.50251936028e-06
-7.69881389209e-09
7.51209067561e-06
-9.57117643812e-09
7.52400194466e-06
-1.19110543185e-08
7.53884423863e-06
-1.48420442681e-08
7.55736854821e-06
-1.85241296035e-08
7.58053520873e-06
-2.31665812458e-08
7.60958169529e-06
-2.90465744038e-08
7.64611851098e-06
-3.65369751516e-08
7.69226857352e-06
-4.61501413872e-08
7.75087966596e-06
-5.86111705356e-08
7.82587556079e-06
-7.49960813303e-08
7.92291199037e-06
-9.70365198077e-08
8.05082033921e-06
-1.27908315663e-07
8.22533815194e-06
-1.74517771826e-07
8.47967430624e-06
-2.54336520832e-07
8.89582879389e-06
-4.16154761851e-07
9.70394611346e-06
-8.08117291942e-07
1.1609931795e-05
-1.90598577298e-06
-5.15506316929e-06
1.67649951546e-05
5.01388823121e-05
1.61068139902e-05
4.4159129403e-05
1.71980939623e-05
3.77598737337e-05
1.26328397171e-05
3.26495140962e-05
8.60291237383e-06
2.89465825136e-05
5.70617762119e-06
2.63676033048e-05
3.78078962592e-06
2.45938851926e-05
2.52680842941e-06
2.33783984832e-05
1.70213487103e-06
2.25473241272e-05
1.15091902384e-06
2.19811569704e-05
7.77611064546e-07
2.15978045632e-05
5.22812327303e-07
2.13405416821e-05
3.48464606371e-07
2.11699441607e-05
2.29412269909e-07
2.10585364673e-05
1.48595892129e-07
2.09871854543e-05
9.42389275169e-08
2.0942622005e-05
5.81289983776e-08
2.09157075479e-05
3.45170513355e-08
2.09002077999e-05
1.93825611049e-08
2.08919203474e-05
9.92721851962e-09
2.08880551943e-05
4.21824416217e-09
2.08867855376e-05
9.32347867241e-10
2.08869505236e-05
-8.1607084838e-10
2.08878288081e-05
-1.63037692135e-09
2.0888987298e-05
-1.8922946436e-09
2.08901806985e-05
-1.84996785957e-09
2.08912812758e-05
-1.657091654e-09
2.08922327723e-05
-1.40570465187e-09
2.08930204684e-05
-1.14792819839e-09
2.08936520776e-05
-9.1077442608e-10
2.08941459708e-05
-7.06049082949e-10
2.08945242444e-05
-5.36767126058e-10
2.08948087813e-05
-4.01178410096e-10
2.08950194091e-05
-2.95232330186e-10
2.08951730603e-05
-2.14132923581e-10
2.08952835859e-05
-1.5317355876e-10
2.08953620218e-05
-1.08101050232e-10
2.08954169183e-05
-7.52702636474e-11
2.08954548061e-05
-5.16753892764e-11
2.0895480583e-05
-3.4940875904e-11
2.08954978241e-05
-2.32319809818e-11
2.08955091212e-05
-1.51504134533e-11
2.08955162736e-05
-9.66584228785e-12
2.08955206853e-05
-6.02321178512e-12
2.08955233723e-05
-3.66169744568e-12
2.08955249259e-05
-2.16132207697e-12
2.08955257662e-05
-1.21038113902e-12
2.08955261836e-05
-6.50855187776e-13
2.08955264535e-05
-4.24269545471e-13
2.08955266478e-05
-3.08256536288e-13
2.08955268004e-05
-2.87486061498e-13
2.08955269347e-05
-3.22878892177e-13
2.08955270671e-05
-3.81482127386e-13
2.0895527219e-05
-4.53124580537e-13
2.08955274076e-05
-5.4234719167e-13
2.08955276207e-05
-6.47059408495e-13
2.08955278556e-05
-7.41680296048e-13
2.08955281272e-05
-8.19161581576e-13
2.08955284515e-05
-8.81481008747e-13
2.08955288297e-05
-9.29542347881e-13
2.08955292439e-05
-9.65976874374e-13
2.08955296912e-05
-9.96394170021e-13
2.0895530171e-05
-1.0301228994e-12
2.08955306728e-05
-1.07301274735e-12
2.08955311828e-05
-1.13559080684e-12
2.08955316958e-05
-1.21552575171e-12
2.08955322296e-05
-1.29875808458e-12
2.08955327947e-05
-1.3829397524e-12
2.08955333944e-05
-1.47365794417e-12
2.08955340222e-05
-1.5651969391e-12
2.08955346869e-05
-1.64296918422e-12
2.08955354025e-05
-1.70425095461e-12
2.08955361701e-05
-1.75936937553e-12
2.08955369741e-05
-1.81609850553e-12
2.08955378003e-05
-1.87559757072e-12
2.08955386526e-05
-1.9428053179e-12
2.08955395365e-05
-2.02466886653e-12
2.08955404502e-05
-2.11437464865e-12
2.08955414016e-05
-2.19783384031e-12
2.08955424037e-05
-2.27407937333e-12
2.08955434585e-05
-2.35853297888e-12
2.0895544551e-05
-2.46220454121e-12
2.08955456737e-05
-2.57571400588e-12
2.08955468462e-05
-2.68391000309e-12
2.08955480839e-05
-2.78505836517e-12
2.08955493799e-05
-2.89094299735e-12
2.08955507137e-05
-3.00901163098e-12
2.0895552082e-05
-3.12948782129e-12
2.08955535185e-05
-3.2440419634e-12
2.0895555062e-05
-3.36084947732e-12
2.08955567219e-05
-3.49082799667e-12
2.08955584898e-05
-3.63312406735e-12
2.08955603649e-05
-3.78808163327e-12
2.08955623713e-05
-3.9760515245e-12
2.08955645321e-05
-4.21537450203e-12
2.08955668762e-05
-4.50126614452e-12
2.08955694656e-05
-4.82870004336e-12
2.08955723557e-05
-5.21971499394e-12
2.08955755731e-05
-5.70065892344e-12
2.08955791762e-05
-6.28200894211e-12
2.08955832798e-05
-6.98566532242e-12
2.08955880044e-05
-7.84679860398e-12
2.08955934832e-05
-8.89659689243e-12
2.08955998607e-05
-1.01662366527e-11
2.08956073609e-05
-1.1716837164e-11
2.08956162345e-05
-1.36302036942e-11
2.08956268112e-05
-1.59728891714e-11
2.08956395107e-05
-1.88338693253e-11
2.08956548037e-05
-2.23356693897e-11
2.08956732126e-05
-2.65853433901e-11
2.08956951538e-05
-3.16081452415e-11
2.08957213052e-05
-3.76714933924e-11
2.0895754402e-05
-4.69373451733e-11
2.08957952956e-05
-5.7660617688e-11
2.08958456698e-05
-7.07741408184e-11
2.0895907746e-05
-8.69766904657e-11
2.08959843154e-05
-1.07061465181e-10
2.08960788273e-05
-1.31951525531e-10
2.08961955792e-05
-1.62750132039e-10
2.08963399038e-05
-2.00852799692e-10
2.08965183437e-05
-2.48004158588e-10
2.08967389477e-05
-3.06336424948e-10
2.0897011692e-05
-3.78489103103e-10
2.08973487776e-05
-4.67765016565e-10
2.08977648155e-05
-5.78317130461e-10
2.08982758905e-05
-7.15554052994e-10
2.08989123635e-05
-8.86479205522e-10
2.08997033987e-05
-1.09883126262e-09
2.09006845925e-05
-1.36203662255e-09
2.09019008063e-05
-1.68789627542e-09
2.09034080161e-05
-2.09125688133e-09
2.0905275534e-05
-2.59075812166e-09
2.09075893319e-05
-3.20954458636e-09
2.09104559632e-05
-3.97630388506e-09
2.09140076653e-05
-4.92654208739e-09
2.09184086682e-05
-6.10441699414e-09
2.09238626628e-05
-7.5649491979e-09
2.09306227398e-05
-9.3766725291e-09
2.09390036281e-05
-1.16251379941e-08
2.09493971751e-05
-1.44172618875e-08
2.09622919526e-05
-1.78871590152e-08
2.09782977945e-05
-2.22034621383e-08
2.09981779444e-05
-2.75788575865e-08
2.10228900024e-05
-3.42831253909e-08
2.10536392608e-05
-4.2660297488e-08
2.10919493714e-05
-5.31521809425e-08
2.1139756543e-05
-6.63312719257e-08
2.11995379758e-05
-8.29477233445e-08
2.12744902499e-05
-1.03998409219e-07
2.13687855359e-05
-1.30832091412e-07
2.14879538098e-05
-1.6531857021e-07
2.16394808829e-05
-2.10138340929e-07
2.1833803667e-05
-2.69318868352e-07
2.20860852468e-05
-3.49318029991e-07
2.24195874234e-05
-4.61410518926e-07
2.28724081871e-05
-6.27338100782e-07
2.35111930468e-05
-8.93120890603e-07
2.44571162736e-05
-1.36207790194e-06
2.5921499127e-05
-2.27249962741e-06
2.81928628301e-05
-4.17734920693e-06
-8.18215941188e-06
3.1219959257e-05
5.35844268318e-05
1.25223873677e-05
5.29166009027e-05
1.78659202081e-05
4.963930182e-05
1.59101390109e-05
4.58382165747e-05
1.2403996535e-05
4.24428747965e-05
9.10152013408e-06
3.97331596183e-05
6.49050502553e-06
3.76912454301e-05
4.56872230401e-06
3.62011671238e-05
3.19221314265e-06
3.51355939382e-05
2.2164924681e-06
3.43848447663e-05
1.52836014595e-06
3.38626590958e-05
1.04499785445e-06
3.35040067894e-05
7.0711697965e-07
3.32609627342e-05
4.72456281271e-07
3.30987206868e-05
3.10837914394e-07
3.29922907261e-05
2.00668907751e-07
3.29239196189e-05
1.26500145383e-07
3.28811297667e-05
7.73069303478e-08
3.28552512209e-05
4.52611413699e-08
3.28403347732e-05
2.48437373019e-08
3.28323548553e-05
1.21981616792e-08
3.28286289551e-05
4.65820366703e-09
3.28274050087e-05
4.07853386668e-10
3.28275644222e-05
-1.78979789811e-09
3.2828410466e-05
-2.73835562814e-09
3.28295265577e-05
-2.96609116717e-09
3.28306762309e-05
-2.80678650209e-09
3.2831736387e-05
-2.46586493095e-09
3.28326528943e-05
-2.06441096174e-09
3.28334115912e-05
-1.66943931666e-09
3.28340198984e-05
-1.31435089454e-09
3.28344955449e-05
-1.01239821904e-09
3.2834859802e-05
-7.65404329696e-10
3.28351337905e-05
-5.69197710385e-10
3.2835336598e-05
-4.16940335472e-10
3.28354845002e-05
-3.01095694826e-10
3.28355908604e-05
-2.14461170651e-10
3.28356662841e-05
-1.50678352832e-10
3.28357190123e-05
-1.04397020014e-10
3.28357553449e-05
-7.12709765312e-11
3.28357799867e-05
-4.78796429734e-11
3.28357964179e-05
-3.15899006903e-11
3.28358071707e-05
-2.04310060306e-11
3.28358140539e-05
-1.29298702842e-11
3.28358183469e-05
-7.98675351136e-12
3.28358209521e-05
-4.80193927391e-12
3.2835822537e-05
-2.7952781886e-12
3.28358234988e-05
-1.57641368195e-12
3.28358239812e-05
-8.64731662432e-13
3.28358241579e-05
-4.43773328709e-13
3.28358242547e-05
-3.37588635912e-13
3.28358243037e-05
-3.31544692696e-13
3.28358243276e-05
-3.9368097316e-13
3.28358243532e-05
-4.99326791016e-13
3.28358244031e-05
-6.23979758347e-13
3.28358244745e-05
-7.57479130131e-13
3.28358245874e-05
-9.12308446251e-13
3.28358247446e-05
-1.03458255758e-12
3.28358249476e-05
-1.11668522691e-12
3.28358251929e-05
-1.17272614793e-12
3.28358254666e-05
-1.21897774734e-12
3.28358257629e-05
-1.26067175037e-12
3.28358260747e-05
-1.30298105262e-12
3.28358263972e-05
-1.3635820746e-12
3.28358267272e-05
-1.45273469222e-12
3.28358270617e-05
-1.56583988235e-12
3.28358274064e-05
-1.69006022298e-12
3.28358277697e-05
-1.81355727665e-12
3.28358281647e-05
-1.93027948803e-12
3.28358285877e-05
-2.03868959191e-12
3.28358290372e-05
-2.13151343152e-12
3.28358295205e-05
-2.2080603803e-12
3.28358300422e-05
-2.28096757923e-12
3.28358305898e-05
-2.36011990933e-12
3.28358311457e-05
-2.44184380316e-12
3.2835831716e-05
-2.5255080689e-12
3.2835832315e-05
-2.62303681458e-12
3.28358329423e-05
-2.74117369372e-12
3.28358335999e-05
-2.87054408776e-12
3.28358342943e-05
-2.99912050573e-12
3.28358350305e-05
-3.12871313477e-12
3.28358358037e-05
-3.26971944645e-12
3.28358366096e-05
-3.42348211809e-12
3.28358374602e-05
-3.57905674504e-12
3.28358383616e-05
-3.72615968062e-12
3.28358393118e-05
-3.87380884419e-12
3.28358403058e-05
-4.04127296024e-12
3.28358413382e-05
-4.22560073665e-12
3.28358424328e-05
-4.4111755618e-12
3.28358436348e-05
-4.60013324721e-12
3.28358449727e-05
-4.81847228724e-12
3.28358464426e-05
-5.08428347246e-12
3.2835848035e-05
-5.39486871382e-12
3.283584979e-05
-5.76016459749e-12
3.28358517609e-05
-6.1970480538e-12
3.2835853981e-05
-6.71665404589e-12
3.28358565005e-05
-7.33447797588e-12
3.28358593856e-05
-8.08794979231e-12
3.28358626889e-05
-9.01657754372e-12
3.28358664404e-05
-1.00998442026e-11
3.28358706754e-05
-1.13093298167e-11
3.28358759421e-05
-1.31627176221e-11
3.28358823103e-05
-1.52787834109e-11
3.28358899668e-05
-1.78597338442e-11
3.28358992189e-05
-2.10161700483e-11
3.28359104517e-05
-2.48949088092e-11
3.28359241512e-05
-2.96772908329e-11
3.28359409303e-05
-3.55795915916e-11
3.28359615546e-05
-4.28895393784e-11
3.28359870248e-05
-5.19439936289e-11
3.28360186832e-05
-6.31838614084e-11
3.28360582089e-05
-7.71521643091e-11
3.28361058545e-05
-9.45151327509e-11
3.28361643122e-05
-1.16031577378e-10
3.28362362636e-05
-1.42656250615e-10
3.28363249655e-05
-1.75624193452e-10
3.28364344415e-05
-2.16463502309e-10
3.28365696315e-05
-2.67058586572e-10
3.28367366579e-05
-3.29675742332e-10
3.28369431218e-05
-4.07155935696e-10
3.28371983931e-05
-5.03074858098e-10
3.28375140322e-05
-6.21804658166e-10
3.2837904437e-05
-7.68718737653e-10
3.28383874901e-05
-9.50587822575e-10
3.2838985365e-05
-1.17591653235e-09
3.28397253898e-05
-1.45539217705e-09
3.28406408434e-05
-1.80186404838e-09
3.28417737011e-05
-2.231623988e-09
3.28431762136e-05
-2.76434755763e-09
3.28449129043e-05
-3.42429041349e-09
3.28470636708e-05
-4.24168453835e-09
3.28497273554e-05
-5.25415832226e-09
3.28530264745e-05
-6.50842050122e-09
3.28571129217e-05
-8.06251074033e-09
3.2862175037e-05
-9.98845318793e-09
3.28684465853e-05
-1.23757252208e-08
3.28762175768e-05
-1.53357103968e-08
3.28858482013e-05
-1.90071030854e-08
3.28977862093e-05
-2.35629514574e-08
3.29125886073e-05
-2.92195330328e-08
3.29309493866e-05
-3.62477821809e-08
3.29537341727e-05
-4.49880801078e-08
3.2982024885e-05
-5.58693971946e-08
3.30171770871e-05
-6.9435071031e-08
3.30608940514e-05
-8.63770458687e-08
3.31153241798e-05
-1.07582277418e-07
3.31831902166e-05
-1.34197515688e-07
3.32679639344e-05
-1.67721635603e-07
3.33741066804e-05
-2.1014108642e-07
3.35074095437e-05
-2.64134874718e-07
3.36754902602e-05
-3.33399498341e-07
3.38885444275e-05
-4.23192705878e-07
3.4160524459e-05
-5.41298979287e-07
3.45110467646e-05
-6.99840284741e-07
3.49685001089e-05
-9.18864214635e-07
3.55748962328e-05
-1.23373450947e-06
3.63922862539e-05
-1.71051089711e-06
3.75066571366e-05
-2.47644899132e-06
3.90081582431e-05
-3.77400052184e-06
4.08706354669e-05
-6.0398265857e-06
-9.89370565838e-06
4.25821831835e-05
5.3570520039e-05
8.95186706784e-06
5.55863053906e-05
1.58501348485e-05
5.52410594387e-05
1.62553859515e-05
5.35976154696e-05
1.40474393554e-05
5.15429058798e-05
1.11562300021e-05
4.95819407487e-05
8.45147061201e-06
4.79262514313e-05
6.22441146776e-06
4.66200399488e-05
4.49842438685e-06
4.56322342475e-05
3.20429838107e-06
4.49066880715e-05
2.25390632893e-06
4.43854425978e-05
1.56624316607e-06
4.40178332706e-05
1.07472630452e-06
4.37629127779e-05
7.27376780075e-07
4.3589045235e-05
4.84705372522e-07
4.34725020224e-05
3.17212125038e-07
4.33958690471e-05
2.03133153959e-07
4.33465910592e-05
1.26584941256e-07
4.33157569834e-05
7.60952613352e-08
4.32971355676e-05
4.34651929989e-08
4.3286433988e-05
2.28997789095e-08
4.328074067e-05
1.03515278415e-08
4.32781179023e-05
3.03057712167e-09
4.32772911903e-05
-9.63155848156e-10
4.32774556797e-05
-2.90288479301e-09
4.32781070721e-05
-3.61750922284e-09
4.32789450884e-05
-3.6448171957e-09
4.32798000765e-05
-3.32085495099e-09
4.32805844407e-05
-2.84874817683e-09
4.3281260281e-05
-2.34523312938e-09
4.32818184115e-05
-1.87245191936e-09
4.32822650914e-05
-1.45907341098e-09
4.32826138218e-05
-1.11413608103e-09
4.32828805405e-05
-8.35901959595e-10
4.32830809245e-05
-6.17311336343e-10
4.32832290764e-05
-4.49253592852e-10
4.32833370059e-05
-3.22405983646e-10
4.32834145188e-05
-2.2820804027e-10
4.32834694103e-05
-1.59290842147e-10
4.32835077452e-05
-1.09578049543e-10
4.32835341263e-05
-7.4228570936e-11
4.32835519881e-05
-4.94462392395e-11
4.3283563859e-05
-3.2320813926e-11
4.3283571581e-05
-2.06802070128e-11
4.32835764798e-05
-1.29111704005e-11
4.32835794905e-05
-7.82653151719e-12
4.32835812717e-05
-4.5703482762e-12
4.32835822793e-05
-2.5582797735e-12
4.32835828404e-05
-1.39141113151e-12
4.32835831932e-05
-7.62025112041e-13
4.32835833552e-05
-4.66478294873e-13
4.32835834245e-05
-3.72168802752e-13
4.32835834271e-05
-3.89691400183e-13
4.32835833843e-05
-4.757287718e-13
4.32835833227e-05
-6.0198353614e-13
4.3283583273e-05
-7.53506965196e-13
4.32835832149e-05
-9.02102601939e-13
4.32835831628e-05
-1.02123788686e-12
4.32835831431e-05
-1.1110403974e-12
4.32835831634e-05
-1.18150775063e-12
4.3283583213e-05
-1.24142112674e-12
4.32835832829e-05
-1.30008751536e-12
4.32835833635e-05
-1.36809004413e-12
4.32835834444e-05
-1.4479672241e-12
4.328358352e-05
-1.544123093e-12
4.32835835924e-05
-1.6604893385e-12
4.32835836578e-05
-1.79569326914e-12
4.32835837189e-05
-1.93278822069e-12
4.32835837903e-05
-2.05983454789e-12
4.32835838768e-05
-2.17292075678e-12
4.32835839774e-05
-2.26788565359e-12
4.32835840949e-05
-2.34421980515e-12
4.32835842365e-05
-2.41404422623e-12
4.32835843972e-05
-2.49545568417e-12
4.3283584556e-05
-2.59158981048e-12
4.32835847073e-05
-2.69553359895e-12
4.32835848678e-05
-2.81104757795e-12
4.32835850479e-05
-2.94400458502e-12
4.32835852484e-05
-3.09112431523e-12
4.32835854651e-05
-3.24621123168e-12
4.32835857001e-05
-3.40742459602e-12
4.32835859596e-05
-3.57534440157e-12
4.3283586247e-05
-3.74758334307e-12
4.32835865712e-05
-3.92475851959e-12
4.32835869331e-05
-4.11023674572e-12
4.32835873318e-05
-4.3051718245e-12
4.32835877745e-05
-4.51779450911e-12
4.32835882614e-05
-4.7544076194e-12
4.32835888088e-05
-5.01333407769e-12
4.32835894575e-05
-5.29833419864e-12
4.32835902481e-05
-5.62720274617e-12
4.32835911952e-05
-6.02379255916e-12
4.32835922881e-05
-6.49440851105e-12
4.32835935664e-05
-7.04904995891e-12
4.32835951013e-05
-7.72099591865e-12
4.32835969412e-05
-8.54431515799e-12
4.32835991353e-05
-9.54522243297e-12
4.32836017684e-05
-1.07615180853e-11
4.32836049765e-05
-1.22615562672e-11
4.3283608932e-05
-1.41040509129e-11
4.32836138793e-05
-1.63310964424e-11
4.32836196764e-05
-1.90284695107e-11
4.32836267021e-05
-2.23315928309e-11
4.32836352441e-05
-2.64118238763e-11
4.32836456599e-05
-3.14424611297e-11
4.32836584046e-05
-3.763864488e-11
4.32836740466e-05
-4.52958524458e-11
4.32836932693e-05
-5.47626821865e-11
4.3283716932e-05
-6.6485114318e-11
4.32837460699e-05
-8.10109364477e-11
4.32837819301e-05
-9.90072708166e-11
4.32838261313e-05
-1.21321857693e-10
4.32838807895e-05
-1.49096408998e-10
4.32839483468e-05
-1.83482544065e-10
4.32840317579e-05
-2.26008714558e-10
4.32841347719e-05
-2.78606330389e-10
4.32842620644e-05
-3.43718494738e-10
4.32844194365e-05
-4.24350121216e-10
4.32846140243e-05
-5.24151195749e-10
4.32848546714e-05
-6.47645558113e-10
4.32851523464e-05
-8.00525077212e-10
4.32855205856e-05
-9.89806119603e-10
4.32859761795e-05
-1.22413421405e-09
4.32865400172e-05
-1.514221093e-09
4.32872378766e-05
-1.8735383009e-09
4.32881016047e-05
-2.31884646194e-09
4.3289170663e-05
-2.87072520834e-09
4.32904938919e-05
-3.55473349098e-09
4.32921319159e-05
-4.40222835098e-09
4.32941598195e-05
-5.45201043077e-09
4.32966706726e-05
-6.75227093826e-09
4.32997796695e-05
-8.362883278e-09
4.33036295223e-05
-1.03580780512e-08
4.33083971981e-05
-1.2829987409e-08
4.33143020549e-05
-1.5893065312e-08
4.3321616163e-05
-1.96895014674e-08
4.33306769937e-05
-2.43961828128e-08
4.33419034032e-05
-3.02332269102e-08
4.33558157056e-05
-3.74750337401e-08
4.33730605638e-05
-4.64643019877e-08
4.33944426715e-05
-5.76298344243e-08
4.342096436e-05
-7.15096632008e-08
4.34538758548e-05
-8.87808478651e-08
4.34947398176e-05
-1.10299011941e-07
4.35455139273e-05
-1.37151054261e-07
4.36086579149e-05
-1.70726046923e-07
4.36872735941e-05
-2.12813016676e-07
4.37852905884e-05
-2.65738671803e-07
4.39077163879e-05
-3.32566973598e-07
4.40609779915e-05
-4.17396417737e-07
4.42533971445e-05
-5.25818682533e-07
4.44958623841e-05
-6.65657982079e-07
4.48027776484e-05
-8.48214343062e-07
4.51933754376e-05
-1.09043799536e-06
4.56933621902e-05
-1.41885084287e-06
4.63363403791e-05
-1.87671269524e-06
4.71627251938e-05
-2.53689553579e-06
4.82092609761e-05
-3.52298456551e-06
4.9471450361e-05
-5.03618979714e-06
5.08000474013e-05
-7.36842438693e-06
-1.08069071984e-05
5.1713248755e-05
5.27606086951e-05
6.19125823863e-06
5.57402399425e-05
1.2870502705e-05
5.73124125582e-05
1.468321485e-05
5.76111978008e-05
1.37486533187e-05
5.71338684074e-05
1.16335591771e-05
5.63199842791e-05
9.26535516309e-06
5.54496452929e-05
7.09475061678e-06
5.46637030542e-05
5.28436638279e-06
5.40144133327e-05
3.85358821738e-06
5.35068428212e-05
2.76147686932e-06
5.31248782803e-05
1.94820761238e-06
5.28455242326e-05
1.35408026769e-06
5.26458880884e-05
9.27012956123e-07
5.2506075422e-05
6.2451800168e-07
5.24099977579e-05
4.132897707e-07
5.23452162702e-05
2.67914716382e-07
5.23024113618e-05
1.69389921994e-07
5.22747665342e-05
1.03740136927e-07
5.22573943804e-05
6.08373450103e-08
5.22468523279e-05
3.34418211304e-08
5.22407560781e-05
1.64477866314e-08
5.22374830667e-05
6.30359437109e-09
5.22359418259e-05
5.78083366963e-10
5.22354265037e-05
-2.38760777911e-09
5.22354784251e-05
-3.66946258978e-09
5.22358133023e-05
-3.97969033123e-09
5.22362606103e-05
-3.76815840449e-09
5.2236723497e-05
-3.31161371442e-09
5.22371513749e-05
-2.77308186872e-09
5.22375218299e-05
-2.24286637509e-09
5.22378288138e-05
-1.76602273564e-09
5.22380751224e-05
-1.36045128419e-09
5.2238267817e-05
-1.02862573684e-09
5.22384154416e-05
-7.64964196895e-10
5.22385265189e-05
-5.60333292812e-10
5.22386087721e-05
-4.04634121284e-10
5.22386687702e-05
-2.88181670716e-10
5.2238711909e-05
-2.02416634948e-10
5.22387424928e-05
-1.40157102398e-10
5.22387638792e-05
-9.55969563525e-11
5.22387786116e-05
-6.41615704639e-11
5.22387885808e-05
-4.23045459766e-11
5.22387952082e-05
-2.73349006352e-11
5.22387995333e-05
-1.72511921675e-11
5.22388022976e-05
-1.05997910277e-11
5.22388040336e-05
-6.31734866198e-12
5.22388051049e-05
-3.62755283766e-12
5.22388057339e-05
-1.99018713254e-12
5.22388060416e-05
-1.03448199498e-12
5.22388061335e-05
-5.27795801122e-13
5.22388060873e-05
-3.07161858939e-13
5.22388059718e-05
-2.77784553366e-13
5.22388058363e-05
-3.72576619358e-13
5.22388057066e-05
-5.15168503176e-13
5.22388055929e-05
-6.7128676235e-13
5.22388054972e-05
-8.26412010212e-13
5.22388054144e-05
-9.56698346401e-13
5.22388053483e-05
-1.05029856582e-12
5.2238805295e-05
-1.11547807802e-12
5.22388052455e-05
-1.17086088165e-12
5.22388051955e-05
-1.22969455945e-12
5.22388051361e-05
-1.29744988388e-12
5.22388050647e-05
-1.38173199802e-12
5.22388049796e-05
-1.48668718217e-12
5.22388048896e-05
-1.61336537523e-12
5.22388047974e-05
-1.75435647476e-12
5.2238804704e-05
-1.8940569702e-12
5.22388046192e-05
-2.01935055084e-12
5.22388045485e-05
-2.12667692332e-12
5.22388044855e-05
-2.21743393859e-12
5.22388044216e-05
-2.29177927292e-12
5.22388043595e-05
-2.35496563181e-12
5.22388043004e-05
-2.42216589879e-12
5.22388042269e-05
-2.50680612402e-12
5.22388041311e-05
-2.61236805212e-12
5.22388040316e-05
-2.73921402848e-12
5.22388039451e-05
-2.8877510924e-12
5.22388038742e-05
-3.05454803887e-12
5.22388038132e-05
-3.22991908753e-12
5.22388037631e-05
-3.40458416146e-12
5.22388037318e-05
-3.58077282169e-12
5.22388037212e-05
-3.76702402297e-12
5.2238803736e-05
-3.96596740395e-12
5.22388037728e-05
-4.17194554517e-12
5.22388038233e-05
-4.38204078845e-12
5.2238803899e-05
-4.6127066128e-12
5.22388040104e-05
-4.88533603071e-12
5.22388041682e-05
-5.20519587576e-12
5.2238804396e-05
-5.57082673569e-12
5.22388047299e-05
-5.99350251294e-12
5.22388052059e-05
-6.50078865955e-12
5.22388058201e-05
-7.11124183463e-12
5.22388065931e-05
-7.84023668828e-12
5.22388075949e-05
-8.72812256017e-12
5.2238808887e-05
-9.83509890851e-12
5.22388105141e-05
-1.12107159647e-11
5.22388125407e-05
-1.28816050531e-11
5.22388151031e-05
-1.49040138041e-11
5.22388183495e-05
-1.73750695135e-11
5.22388224161e-05
-2.04088724043e-11
5.22388275232e-05
-2.41604575262e-11
5.22388339255e-05
-2.87517659402e-11
5.22388419237e-05
-3.44028749132e-11
5.2238851892e-05
-4.13891839145e-11
5.22388642899e-05
-5.00288158127e-11
5.22388797214e-05
-6.07136557884e-11
5.22388988992e-05
-7.39111470919e-11
5.22389227245e-05
-9.02530222394e-11
5.22389522973e-05
-1.10521113831e-10
5.22389889606e-05
-1.35642222808e-10
5.22390343517e-05
-1.66724660936e-10
5.22390904851e-05
-2.05194990213e-10
5.22391599534e-05
-2.52813220251e-10
5.22392458687e-05
-3.11783632735e-10
5.2239352102e-05
-3.84787228636e-10
5.22394835117e-05
-4.75122444076e-10
5.22396461602e-05
-5.86924225974e-10
5.22398474654e-05
-7.25314922489e-10
5.22400965571e-05
-8.96590055596e-10
5.22404048393e-05
-1.10860915161e-09
5.22407863998e-05
-1.3711339443e-09
5.22412586863e-05
-1.69617737155e-09
5.22418433096e-05
-2.09863150376e-09
5.22425670036e-05
-2.5970290557e-09
5.22434627732e-05
-3.21443873942e-09
5.22445715702e-05
-3.97935487034e-09
5.22459440915e-05
-4.92706723957e-09
5.22476431472e-05
-6.10109680208e-09
5.22497465182e-05
-7.55523867973e-09
5.22523506053e-05
-9.35618662265e-09
5.22555747971e-05
-1.15868094122e-08
5.2259566915e-05
-1.43499257501e-08
5.2264510158e-05
-1.77729925892e-08
5.2270631552e-05
-2.20142139478e-08
5.22782124545e-05
-2.72701185015e-08
5.22876017036e-05
-3.37850719053e-08
5.22992318277e-05
-4.18630394011e-08
5.23136395158e-05
-5.18825308636e-08
5.23314909187e-05
-6.43156737518e-08
5.23536134742e-05
-7.97524053258e-08
5.23810357308e-05
-9.8931764226e-08
5.24150370275e-05
-1.22781985217e-07
5.24572107619e-05
-1.52472793045e-07
5.25095444529e-05
-1.89484915261e-07
5.25745213538e-05
-2.35702979059e-07
5.26552503454e-05
-2.93541742567e-07
5.27556326399e-05
-3.6612076163e-07
5.28805775988e-05
-4.57512075753e-07
5.30362816605e-05
-5.73100663108e-07
5.32305852144e-05
-7.20122412831e-07
5.34734202842e-05
-9.08493023191e-07
5.37773292412e-05
-1.15212344808e-06
5.41579491653e-05
-1.47105822609e-06