/*--------------------------------*- C++ -*----------------------------------*\
| =========                 |                                                 |
| \\      /  F ield         | OpenFOAM: The Open Source CFD Toolbox           |
|  \\    /   O peration     | Version:  2106                                  |
|   \\  /    A nd           | Website:  www.openfoam.com                      |
|    \\/     M anipulation  |                                                 |
\*---------------------------------------------------------------------------*/
FoamFile
{
    version     2.0;
    format      ascii;
    arch        "LSB;label=32;scalar=64";
    class       volVectorField;
    location    "0.305";
    object      U;
}
// * * * * * * * * * * * * * * * * * * * * * * * * * * * * * * * * * * * * * //

dimensions      [0 1 -1 0 0 0 0];

internalField   nonuniform List<vector> 
11200
(
(0.662462403394 0.15056944526 0)
(0.558948665877 0.103243389725 0)
(0.383850719064 0.0513512252824 0)
(0.283747569839 0.0248708562535 0)
(0.232075238227 0.0124170461429 0)
(0.201908548652 0.00662281766616 0)
(0.183197888691 0.00380291518569 0)
(0.171276437919 0.00231587078734 0)
(0.16351024881 0.00146450725189 0)
(0.158388704809 0.000944893104653 0)
(0.15500655832 0.000615177584214 0)
(0.152786595007 0.000402234506949 0)
(0.151346436104 0.00026423293834 0)
(0.150428189914 0.000175250902245 0)
(0.149856576171 0.000118361475568 0)
(0.149512365105 8.21608554403e-05 0)
(0.149314794564 5.88668610294e-05 0)
(0.149209422288 4.33167299103e-05 0)
(0.149159552016 3.29355968929e-05 0)
(0.149142300238 2.81871486041e-05 0)
(0.149144442791 2.7685130401e-05 0)
(0.149156703971 2.98908519046e-05 0)
(0.149172310129 3.3051213025e-05 0)
(0.149187841503 3.59668176544e-05 0)
(0.149202033703 3.86023471745e-05 0)
(0.149214286836 4.10414458265e-05 0)
(0.149224433243 4.33187527974e-05 0)
(0.149232579774 4.54654130328e-05 0)
(0.149238963069 4.75206933095e-05 0)
(0.149243865089 4.95316382631e-05 0)
(0.149247570856 5.15602388222e-05 0)
(0.149250347817 5.36974101015e-05 0)
(0.149252393024 5.60259889719e-05 0)
(0.149253876627 5.84073853711e-05 0)
(0.149254931234 6.07684234356e-05 0)
(0.149255643364 6.30895232071e-05 0)
(0.149256109861 6.53809666362e-05 0)
(0.14925641437 6.76556453058e-05 0)
(0.149256610581 6.9925165407e-05 0)
(0.14925672772 7.21956582473e-05 0)
(0.149256786765 7.44682106217e-05 0)
(0.149256805016 7.67437954404e-05 0)
(0.149256794666 7.90221094872e-05 0)
(0.149256764512 8.13020106907e-05 0)
(0.149256720812 8.35817689175e-05 0)
(0.149256668192 8.58590508087e-05 0)
(0.149256610652 8.81310848003e-05 0)
(0.149256552248 9.03948127671e-05 0)
(0.149256497502 9.26470916374e-05 0)
(0.149256451553 9.48849251253e-05 0)
(0.149256421272 9.71051838939e-05 0)
(0.149256416414 9.93049579559e-05 0)
(0.14925645029 0.000101481268161 0)
(0.149256541235 0.000103630713143 0)
(0.149256714989 0.000105748974147 0)
(0.149257007891 0.0001078304394 0)
(0.149257470932 0.000109868082186 0)
(0.149258179089 0.000111852043531 0)
(0.149259241836 0.000113769696434 0)
(0.149260817207 0.00011559626428 0)
(0.149263151359 0.000117276086032 0)
(0.149266652162 0.000118725183175 0)
(0.14927178887 0.000119983267834 0)
(0.149279208071 0.000121242720284 0)
(0.149289941804 0.000122965580627 0)
(0.149305510479 0.000125337406995 0)
(0.149328299607 0.000128118221973 0)
(0.149362003809 0.000131080975833 0)
(0.149412215277 0.000134009979394 0)
(0.149487164079 0.000136791212099 0)
(0.14959878831 0.000140699895691 0)
(0.149769918311 0.000151557043395 0)
(0.15003832342 0.000172287908501 0)
(0.150467168924 0.000202548960318 0)
(0.151192262766 0.000232486166178 0)
(0.152491277751 0.000191685771068 0)
(0.155020427179 -0.000216806723163 0)
(0.162374211594 -0.00211042659516 0)
(0.187704715201 -0.0107901720503 0)
(0.204370288256 -0.0496680426997 0)
(0.965408252344 0.289214709661 0)
(0.961962845841 0.252656040908 0)
(0.823574361238 0.15902144192 0)
(0.698139323083 0.0959957313111 0)
(0.610225402911 0.0582481141313 0)
(0.548971415273 0.0362148530865 0)
(0.506588796368 0.0231612849624 0)
(0.477567159795 0.0151375151206 0)
(0.457745365456 0.0100177549615 0)
(0.444228317033 0.00665814101343 0)
(0.435053137373 0.00441555613987 0)
(0.42887293936 0.00290686572318 0)
(0.424754005366 0.00189105826739 0)
(0.422046437629 0.00121004514112 0)
(0.420297582745 0.000757163166269 0)
(0.419192955995 0.000459255567288 0)
(0.418515333322 0.000265854438182 0)
(0.418116169015 0.000142399213927 0)
(0.417895548305 6.61089750558e-05 0)
(0.417786480293 2.30913923975e-05 0)
(0.417745048755 1.40639392371e-06 0)
(0.417741754706 -1.01644634541e-05 0)
(0.417756336241 -1.37159150276e-05 0)
(0.417778279145 -1.32693929542e-05 0)
(0.417802558074 -1.08372202604e-05 0)
(0.417825913738 -7.49424120671e-06 0)
(0.417846652806 -3.87800168446e-06 0)
(0.417864176574 -3.58572544513e-07 0)
(0.417878488891 2.86260648278e-06 0)
(0.417889905102 5.68167525883e-06 0)
(0.417898896951 8.03437203083e-06 0)
(0.41790595803 9.83637570975e-06 0)
(0.417911290274 1.10052862418e-05 0)
(0.417915127419 1.18578052537e-05 0)
(0.417917847305 1.26796340152e-05 0)
(0.41791972493 1.34364944228e-05 0)
(0.41792100256 1.41104672019e-05 0)
(0.417921871511 1.4725708739e-05 0)
(0.417922458055 1.53111827061e-05 0)
(0.417922833824 1.58804829079e-05 0)
(0.41792305156 1.6433987375e-05 0)
(0.417923154682 1.69767932725e-05 0)
(0.417923173901 1.75125803087e-05 0)
(0.41792313174 1.80446755951e-05 0)
(0.417923044436 1.85762189183e-05 0)
(0.417922924099 1.91095693472e-05 0)
(0.41792278114 1.96466730163e-05 0)
(0.417922626031 2.0189414449e-05 0)
(0.417922470557 2.07398570244e-05 0)
(0.41792232824 2.1300059443e-05 0)
(0.417922216987 2.18700610723e-05 0)
(0.417922161792 2.24499718843e-05 0)
(0.417922196461 2.30397842557e-05 0)
(0.41792236737 2.36390995879e-05 0)
(0.417922739607 2.42471029916e-05 0)
(0.417923405829 2.4862949231e-05 0)
(0.417924497214 2.54845113699e-05 0)
(0.417926206849 2.60997696173e-05 0)
(0.41792881234 2.66915097708e-05 0)
(0.41793270276 2.72289581806e-05 0)
(0.417938478924 2.76633513158e-05 0)
(0.417947238066 2.79434691933e-05 0)
(0.417960468945 2.8229352871e-05 0)
(0.417980308154 2.77802007206e-05 0)
(0.418009522266 2.51832814302e-05 0)
(0.418051717319 1.9363058253e-05 0)
(0.418113077228 9.51377038399e-06 0)
(0.418203718632 -5.89635591781e-06 0)
(0.418339241267 -2.93908335253e-05 0)
(0.418544537348 -6.46507770822e-05 0)
(0.418861500956 -0.000115870488786 0)
(0.419359735912 -0.000188024035807 0)
(0.420152719708 -0.000307804415088 0)
(0.421444126614 -0.000532793853952 0)
(0.423625652726 -0.000999837941925 0)
(0.427416102448 -0.00209069323194 0)
(0.43423788 -0.00485709084873 0)
(0.448266548508 -0.0122560950855 0)
(0.474650904425 -0.0342479620286 0)
(0.478183882743 -0.0987896088579 0)
(1.02222096266 0.238416186567 0)
(1.08213751497 0.295926651186 0)
(1.03447719524 0.239503064538 0)
(0.954615362866 0.174290162356 0)
(0.879991994097 0.12134546618 0)
(0.818614358569 0.0830993818351 0)
(0.771410757931 0.0567316648338 0)
(0.736634282428 0.0387409662756 0)
(0.711624308844 0.0264327847861 0)
(0.693916481679 0.017973102501 0)
(0.681541256663 0.0121424457547 0)
(0.67299994888 0.00812490599721 0)
(0.667180468305 0.00536631882461 0)
(0.663271482585 0.00348444251527 0)
(0.66068829533 0.00221255924315 0)
(0.659013954667 0.00136337949953 0)
(0.657954257102 0.000805241395172 0)
(0.657303947231 0.000445914089619 0)
(0.656921511477 0.00022106579006 0)
(0.656709928575 8.55781590678e-05 0)
(0.656603046719 8.35459759207e-06 0)
(0.656561480136 -3.37231271545e-05 0)
(0.656557561804 -5.68575863203e-05 0)
(0.656571019276 -6.68767150031e-05 0)
(0.65659253065 -6.84842224016e-05 0)
(0.656616332388 -6.55629238349e-05 0)
(0.656639117226 -6.05521242642e-05 0)
(0.656659278344 -5.48624765263e-05 0)
(0.656676230519 -4.92784381228e-05 0)
(0.656689951639 -4.42069714663e-05 0)
(0.656700688202 -3.98429196898e-05 0)
(0.656708824221 -3.63046978385e-05 0)
(0.656715055586 -3.36984630483e-05 0)
(0.656720072724 -3.18597102132e-05 0)
(0.65672391917 -3.0813107397e-05 0)
(0.656726610053 -3.03061004501e-05 0)
(0.656728456996 -3.02504917004e-05 0)
(0.656729739504 -3.05613860269e-05 0)
(0.656730625027 -3.10889474406e-05 0)
(0.656731203472 -3.17507194263e-05 0)
(0.656731549168 -3.25172203707e-05 0)
(0.656731727468 -3.3353350871e-05 0)
(0.656731783549 -3.42345658536e-05 0)
(0.656731751431 -3.51416640097e-05 0)
(0.656731655767 -3.60592341989e-05 0)
(0.656731515012 -3.69765062241e-05 0)
(0.656731345218 -3.78859006336e-05 0)
(0.656731162364 -3.87818711078e-05 0)
(0.656730983739 -3.96597781928e-05 0)
(0.656730827467 -4.05140931667e-05 0)
(0.656730717906 -4.13413646874e-05 0)
(0.656730690815 -4.21375756995e-05 0)
(0.656730795157 -4.29009959151e-05 0)
(0.656731099029 -4.3634756734e-05 0)
(0.656731699171 -4.435210263e-05 0)
(0.656732732649 -4.50837832595e-05 0)
(0.656734387178 -4.58843997092e-05 0)
(0.656736939409 -4.68491047292e-05 0)
(0.656740797925 -4.81033899966e-05 0)
(0.656746559919 -4.98649619469e-05 0)
(0.656755154957 -5.26410141347e-05 0)
(0.656768230722 -5.74454604588e-05 0)
(0.656787111013 -6.50731169942e-05 0)
(0.656813235321 -7.63935772591e-05 0)
(0.656850436826 -9.30973964835e-05 0)
(0.656905423356 -0.00011758432786 0)
(0.656987576662 -0.000153055437995 0)
(0.657110686546 -0.000204797391153 0)
(0.657296567013 -0.000281330918454 0)
(0.657580611268 -0.000396533172203 0)
(0.65802095169 -0.000574758143122 0)
(0.658706795008 -0.000863278923538 0)
(0.659785216123 -0.00135218770045 0)
(0.661513797261 -0.00221463408276 0)
(0.66433479409 -0.0038132270856 0)
(0.668944137505 -0.00694691506848 0)
(0.676368041414 -0.0133547041327 0)
(0.688614935614 -0.0268485595368 0)
(0.705244793402 -0.0563313901858 0)
(0.700505418468 -0.113111741234 0)
(1.02251475149 0.170807151125 0)
(1.10138974198 0.276496476798 0)
(1.11752422957 0.266664797337 0)
(1.09214655875 0.219901697004 0)
(1.05187809373 0.16816884555 0)
(1.01020814587 0.123567394492 0)
(0.973494595415 0.0888375193029 0)
(0.943864443374 0.0630063692966 0)
(0.921142669499 0.0442232018698 0)
(0.904283925149 0.0307423905675 0)
(0.892074703891 0.0211562919936 0)
(0.883404328646 0.0143954664602 0)
(0.877352471792 0.0096679462026 0)
(0.87319749223 0.00639383524009 0)
(0.870392698888 0.004151162879 0)
(0.868533793471 0.00263448889429 0)
(0.867327379787 0.0016240152127 0)
(0.86656395965 0.000962673620181 0)
(0.866096185081 0.000539119830126 0)
(0.865821925589 0.000275150882137 0)
(0.865671064589 0.000117065643847 0)
(0.865594796856 2.87898329857e-05 0)
(0.865563721743 -1.93272914251e-05 0)
(0.865560896676 -4.12636202726e-05 0)
(0.865572223809 -4.76677103841e-05 0)
(0.86558921367 -4.55270808864e-05 0)
(0.865607507284 -3.91575450162e-05 0)
(0.865624830716 -3.11465938345e-05 0)
(0.865640100137 -2.29653516075e-05 0)
(0.865652948509 -1.53814682402e-05 0)
(0.865663407387 -8.72370298833e-06 0)
(0.865671680231 -3.04484438644e-06 0)
(0.865678019407 1.73378400126e-06 0)
(0.865682632683 5.46511490074e-06 0)
(0.865685937803 8.03238931321e-06 0)
(0.865688322027 9.78949586937e-06 0)
(0.865689940014 1.11429349577e-05 0)
(0.865691087959 1.22876872904e-05 0)
(0.865691941846 1.32563086985e-05 0)
(0.865692520093 1.41426290313e-05 0)
(0.865692870841 1.49376548625e-05 0)
(0.865693058616 1.56640307101e-05 0)
(0.865693122225 1.63374096208e-05 0)
(0.865693093135 1.69741861553e-05 0)
(0.865692993642 1.75890291823e-05 0)
(0.865692839953 1.81921756743e-05 0)
(0.86569264716 1.87912332632e-05 0)
(0.865692431797 1.93926026166e-05 0)
(0.865692214627 2.00043379837e-05 0)
(0.865692018584 2.06351487811e-05 0)
(0.865691873901 2.12705083521e-05 0)
(0.865691822411 2.1897790117e-05 0)
(0.865691917597 2.25004104848e-05 0)
(0.86569222955 2.30522821032e-05 0)
(0.865692851952 2.35165189431e-05 0)
(0.865693916979 2.38559921038e-05 0)
(0.865695608043 2.4035538043e-05 0)
(0.865698214714 2.39355010664e-05 0)
(0.865702142913 2.34067213112e-05 0)
(0.865707811674 2.20400419515e-05 0)
(0.865715674838 1.92634694698e-05 0)
(0.865727356509 1.43889857727e-05 0)
(0.865745452129 5.58404941163e-06 0)
(0.865772923026 -8.75432389813e-06 0)
(0.865813642335 -3.06230299496e-05 0)
(0.865873526434 -6.39736394157e-05 0)
(0.865961909277 -0.000115680342772 0)
(0.866093298808 -0.000196504319713 0)
(0.866290239706 -0.000323705624297 0)
(0.866587546325 -0.00052576083993 0)
(0.867038819087 -0.000851621185567 0)
(0.86772912384 -0.00138823219364 0)
(0.868794815962 -0.00228438595968 0)
(0.870449167428 -0.00381471471408 0)
(0.873011108169 -0.00650356473717 0)
(0.876879617507 -0.0113605576841 0)
(0.882377341102 -0.0202552271897 0)
(0.889687676985 -0.0364592257401 0)
(0.896365740082 -0.0655064243889 0)
(0.88654061 -0.110073308033 0)
(1.01287874753 0.118961022037 0)
(1.08820669143 0.231806935378 0)
(1.13741363792 0.253106763275 0)
(1.15409081837 0.228992752387 0)
(1.14994204394 0.188368357815 0)
(1.1353845733 0.146579842982 0)
(1.11758884997 0.110150964639 0)
(1.10059488726 0.080816220975 0)
(1.08612443977 0.0582265751843 0)
(1.07459077649 0.0413189837101 0)
(1.06579130221 0.0289160188877 0)
(1.05928780808 0.0199600986213 0)
(1.05459956662 0.0135815587502 0)
(1.0512905522 0.00909744182092 0)
(1.04899961812 0.00598615263092 0)
(1.04744315864 0.00385696511551 0)
(1.04640626883 0.00242159664596 0)
(1.04573033706 0.00147014883366 0)
(1.04530076501 0.000851700628061 0)
(1.04503625102 0.000459015036265 0)
(1.04487987157 0.000216755576547 0)
(1.04479223848 7.30165307133e-05 0)
(1.04474835671 -5.50522830765e-06 0)
(1.04473144098 -4.40093954382e-05 0)
(1.04472917416 -5.93864549547e-05 0)
(1.04473464226 -6.17200335884e-05 0)
(1.04474357454 -5.72463767071e-05 0)
(1.04475344307 -4.98044112338e-05 0)
(1.04476286824 -4.16452221384e-05 0)
(1.04477117989 -3.39897785994e-05 0)
(1.0447781276 -2.74244008259e-05 0)
(1.04478369874 -2.21525452524e-05 0)
(1.04478803938 -1.81291893152e-05 0)
(1.04479136057 -1.51404715289e-05 0)
(1.04479391701 -1.28092412754e-05 0)
(1.04479600204 -1.10129822182e-05 0)
(1.04479772719 -9.5243494896e-06 0)
(1.04479903788 -8.2349694657e-06 0)
(1.04480000423 -7.21611519067e-06 0)
(1.04480067725 -6.54735424925e-06 0)
(1.04480107848 -6.16803725788e-06 0)
(1.04480129505 -5.95956715921e-06 0)
(1.04480137247 -5.87115440306e-06 0)
(1.04480134915 -5.85362345989e-06 0)
(1.04480124996 -5.86662223566e-06 0)
(1.04480109263 -5.89028062834e-06 0)
(1.04480089479 -5.91495909603e-06 0)
(1.04480067766 -5.93668938976e-06 0)
(1.044800466 -5.95964417144e-06 0)
(1.04480026613 -5.99500844676e-06 0)
(1.04480009417 -6.0261628563e-06 0)
(1.04479999555 -6.05125452044e-06 0)
(1.04480002453 -6.07679107817e-06 0)
(1.04480025563 -6.11767006522e-06 0)
(1.04480080917 -6.211370725e-06 0)
(1.04480187071 -6.46808692007e-06 0)
(1.04480362719 -7.15135558671e-06 0)
(1.04480636272 -8.53869910923e-06 0)
(1.04481039282 -1.11195231506e-05 0)
(1.04481618531 -1.49445318882e-05 0)
(1.04482475977 -1.98872538726e-05 0)
(1.04483726643 -2.61034376212e-05 0)
(1.04485498111 -3.58846844632e-05 0)
(1.04488020956 -5.22107598112e-05 0)
(1.04491642043 -7.93008515485e-05 0)
(1.04496876189 -0.000123401249506 0)
(1.04504483351 -0.000194282105842 0)
(1.0451559782 -0.000307521778487 0)
(1.0453193353 -0.000488285819655 0)
(1.04556076014 -0.000777601023104 0)
(1.04591892532 -0.00124279457677 0)
(1.04645168021 -0.00199552203039 0)
(1.04724313454 -0.00322635435185 0)
(1.0484062352 -0.00526613552104 0)
(1.05006831144 -0.0086918339598 0)
(1.05228606921 -0.0144974313087 0)
(1.0548155968 -0.0242904266358 0)
(1.05686740863 -0.040381651847 0)
(1.05573573034 -0.0656121020288 0)
(1.04212260297 -0.0994876346696 0)
(1.00447483093 0.081403996132 0)
(1.06917235615 0.181288537422 0)
(1.13080565286 0.21695041741 0)
(1.17374995452 0.210789154349 0)
(1.19865258738 0.183690075718 0)
(1.21019980026 0.149751682139 0)
(1.21350246228 0.116779142807 0)
(1.21251712964 0.0882206764318 0)
(1.20973085639 0.065048149308 0)
(1.20651105377 0.0470209071218 0)
(1.20351897483 0.0334068066422 0)
(1.20101127793 0.0233557305897 0)
(1.19903426158 0.0160720118807 0)
(1.19753857409 0.0108795117961 0)
(1.19644109337 0.00723418621358 0)
(1.19565534834 0.00471351674368 0)
(1.19510463621 0.00299762749221 0)
(1.19472620686 0.00184915941835 0)
(1.19447120944 0.00109495914339 0)
(1.19430288263 0.00061061025083 0)
(1.19419422675 0.000307985626033 0)
(1.19412592543 0.000125767759833 0)
(1.19408485892 2.22225920481e-05 0)
(1.19406158332 -3.24523571741e-05 0)
(1.19404926619 -5.72708853868e-05 0)
(1.19404375066 -6.4596500557e-05 0)
(1.194042236 -6.23745324421e-05 0)
(1.19404290381 -5.55198734577e-05 0)
(1.19404463846 -4.69428882725e-05 0)
(1.19404678175 -3.82570277829e-05 0)
(1.19404896128 -3.02633467999e-05 0)
(1.19405098498 -2.32668117171e-05 0)
(1.19405278377 -1.72909788928e-05 0)
(1.19405435198 -1.22623307405e-05 0)
(1.19405570581 -8.0744341652e-06 0)
(1.19405686445 -4.67320428074e-06 0)
(1.19405780037 -2.06226308649e-06 0)
(1.19405846041 -1.72996045684e-07 0)
(1.19405880404 1.14446866706e-06 0)
(1.19405890675 2.00023540027e-06 0)
(1.19405894984 2.67815500565e-06 0)
(1.19405897008 3.28031538873e-06 0)
(1.19405894093 3.80666040121e-06 0)
(1.19405887899 4.26654822421e-06 0)
(1.19405878018 4.6716400745e-06 0)
(1.19405863536 5.03860535543e-06 0)
(1.19405844725 5.37939628766e-06 0)
(1.1940582226 5.69695864419e-06 0)
(1.19405797207 5.9821584994e-06 0)
(1.19405773788 6.22063712631e-06 0)
(1.19405756564 6.43595349375e-06 0)
(1.19405748499 6.62101420395e-06 0)
(1.1940575449 6.74925677332e-06 0)
(1.19405780374 6.77987608436e-06 0)
(1.19405829808 6.65361120445e-06 0)
(1.19405900526 6.28027547489e-06 0)
(1.19406000984 5.50472042057e-06 0)
(1.19406146901 3.9524279652e-06 0)
(1.19406404438 1.20269915054e-06 0)
(1.19406876843 -3.03183842812e-06 0)
(1.19407618757 -9.52704018721e-06 0)
(1.19408623132 -1.96700176976e-05 0)
(1.19409965645 -3.54720332586e-05 0)
(1.19411845248 -5.98490144314e-05 0)
(1.19414474649 -9.73824243735e-05 0)
(1.19418135734 -0.000155387738143 0)
(1.19423227247 -0.000245511361211 0)
(1.19430312089 -0.0003862329603 0)
(1.19440178079 -0.000607013176448 0)
(1.19453902132 -0.000955193680233 0)
(1.19472888055 -0.00150730464447 0)
(1.19498812529 -0.00238765244052 0)
(1.19533155841 -0.00379951296761 0)
(1.19575642382 -0.00607591469572 0)
(1.19620237834 -0.00975587621153 0)
(1.1964496712 -0.0156835210624 0)
(1.19591143213 -0.0250702945804 0)
(1.19343298313 -0.0393727814945 0)
(1.1866787944 -0.0598354633911 0)
(1.17012929781 -0.0851504096764 0)
(0.998962321808 0.0544316239346 0)
(1.05310955099 0.133401606086 0)
(1.11628264777 0.170777556797 0)
(1.17301266977 0.175143870723 0)
(1.21791239771 0.159583605076 0)
(1.25049849903 0.134951018852 0)
(1.27288481619 0.108411655563 0)
(1.28776711058 0.0838849705171 0)
(1.2974525537 0.0630565710052 0)
(1.30366060863 0.0462999200047 0)
(1.30759218631 0.0333205134362 0)
(1.3100535289 0.023549522654 0)
(1.31157343775 0.0163599064125 0)
(1.31249472548 0.0111713137872 0)
(1.31303840359 0.00749150530131 0)
(1.31334648037 0.00492448439438 0)
(1.3135098795 0.00316295353562 0)
(1.3135864947 0.00197474993073 0)
(1.31361285639 0.00118819469955 0)
(1.31361169234 0.000678626885099 0)
(1.31359684034 0.000357005948938 0)
(1.31357650498 0.000160751651297 0)
(1.31355549657 4.64669914449e-05 0)
(1.31353618726 -1.5871343933e-05 0)
(1.31351951566 -4.60595895297e-05 0)
(1.31350581349 -5.70693806152e-05 0)
(1.31349489587 -5.73238901881e-05 0)
(1.31348642568 -5.20852233471e-05 0)
(1.31348001474 -4.45227365479e-05 0)
(1.31347527786 -3.64608603836e-05 0)
(1.31347186398 -2.88726636296e-05 0)
(1.31346947005 -2.22116048668e-05 0)
(1.31346783649 -1.66291252994e-05 0)
(1.31346673504 -1.21327013747e-05 0)
(1.31346600026 -8.65654557597e-06 0)
(1.31346553475 -6.09907677158e-06 0)
(1.31346523736 -4.3230874995e-06 0)
(1.31346501869 -3.1211986846e-06 0)
(1.3134648759 -2.26403482249e-06 0)
(1.31346489471 -1.54735625208e-06 0)
(1.31346503764 -9.71396530488e-07 0)
(1.31346512672 -5.58415676335e-07 0)
(1.31346511123 -1.99529078715e-07 0)
(1.31346502298 1.35617771344e-07 0)
(1.31346488314 4.45087400484e-07 0)
(1.31346470424 7.3733368823e-07 0)
(1.31346448976 1.02414696995e-06 0)
(1.31346424234 1.31599921277e-06 0)
(1.31346397257 1.62357102033e-06 0)
(1.31346371417 1.9484996534e-06 0)
(1.31346348958 2.240841188e-06 0)
(1.31346330643 2.46250169456e-06 0)
(1.31346319539 2.56920853501e-06 0)
(1.3134632095 2.49711003237e-06 0)
(1.31346343614 2.16009897256e-06 0)
(1.31346399438 1.46935123841e-06 0)
(1.31346485903 3.73719476759e-07 0)
(1.3134661159 -1.31189766923e-06 0)
(1.31346818792 -3.80697766927e-06 0)
(1.31347129539 -7.83913633564e-06 0)
(1.31347563929 -1.46956958699e-05 0)
(1.31348145211 -2.59529735601e-05 0)
(1.31348900772 -4.32018393052e-05 0)
(1.3134987917 -6.96135879019e-05 0)
(1.31351112165 -0.000110216052899 0)
(1.3135260783 -0.000172753966652 0)
(1.31354327915 -0.000269309791266 0)
(1.31356141175 -0.000418836111013 0)
(1.31357728118 -0.000651146865351 0)
(1.31358397409 -0.00101346636692 0)
(1.31356743253 -0.00158080922521 0)
(1.31350022071 -0.00247222726461 0)
(1.31332810325 -0.00387498637355 0)
(1.31294349733 -0.00608150117045 0)
(1.31213639941 -0.00953635464231 0)
(1.31050144628 -0.0148812554882 0)
(1.30728526167 -0.0229447736846 0)
(1.30127815704 -0.0345678131252 0)
(1.29061216309 -0.0501886232376 0)
(1.27181475563 -0.0685818694921 0)
(0.995736070317 0.0346338584647 0)
(1.04179512703 0.0905689194201 0)
(1.10222835472 0.121549563297 0)
(1.16491407011 0.129605832547 0)
(1.22202560325 0.12200926701 0)
(1.26951884628 0.106019937052 0)
(1.30680214967 0.0870975547445 0)
(1.33499525132 0.0686366798879 0)
(1.35574465842 0.0523698378669 0)
(1.37069603758 0.0389256167575 0)
(1.38128261134 0.0282980721147 0)
(1.38866251899 0.0201712757883 0)
(1.39373016092 0.0141175089139 0)
(1.39715642045 0.0097053344184 0)
(1.39943414735 0.0065505935656 0)
(1.40091945451 0.00433445282227 0)
(1.4018659861 0.0028041429378 0)
(1.40245199198 0.00176574099912 0)
(1.40280107506 0.00107419291295 0)
(1.40299775751 0.000623232755891 0)
(1.40309896455 0.000336406954878 0)
(1.40314240387 0.000159620961543 0)
(1.40315265059 5.51622100197e-05 0)
(1.40314514813 -2.99979600581e-06 0)
(1.40312937546 -3.21239922219e-05 0)
(1.40311096039 -4.389124804e-05 0)
(1.40309291006 -4.57612290295e-05 0)
(1.40307674902 -4.24190660995e-05 0)
(1.40306307882 -3.67282079496e-05 0)
(1.40305197315 -3.03654572224e-05 0)
(1.40304323024 -2.42454874338e-05 0)
(1.40303652472 -1.88153724622e-05 0)
(1.40303149531 -1.42435444625e-05 0)
(1.40302779205 -1.05321160168e-05 0)
(1.40302511701 -7.580438529e-06 0)
(1.40302323795 -5.26369926767e-06 0)
(1.40302197834 -3.45909853614e-06 0)
(1.40302118751 -2.02300340775e-06 0)
(1.40302069998 -8.50644913565e-07 0)
(1.4030203211 8.09868275366e-08 0)
(1.40301998286 7.9014486946e-07 0)
(1.40301976698 1.27993655613e-06 0)
(1.40301966122 1.65193573147e-06 0)
(1.40301957358 1.97135807552e-06 0)
(1.40301946925 2.27578599956e-06 0)
(1.40301934125 2.58338321264e-06 0)
(1.40301918812 2.90344462921e-06 0)
(1.40301901203 3.24057177299e-06 0)
(1.40301881425 3.59550462211e-06 0)
(1.40301858772 3.95827324826e-06 0)
(1.40301834447 4.28749098777e-06 0)
(1.40301811832 4.55157390669e-06 0)
(1.40301793755 4.71223019204e-06 0)
(1.4030178275 4.71195994166e-06 0)
(1.40301780578 4.46253740106e-06 0)
(1.40301787776 3.82164279483e-06 0)
(1.40301804679 2.58529617148e-06 0)
(1.40301832529 6.32645293297e-07 0)
(1.40301893275 -2.43395141229e-06 0)
(1.40302003491 -7.40597579855e-06 0)
(1.40302150411 -1.50745173393e-05 0)
(1.40302300934 -2.67592220509e-05 0)
(1.40302407127 -4.43098511495e-05 0)
(1.40302394479 -7.07081117636e-05 0)
(1.4030211388 -0.000110541039126 0)
(1.40301291058 -0.000170834870967 0)
(1.40299445241 -0.000262464213839 0)
(1.40295757774 -0.000402293966005 0)
(1.40288833793 -0.0006163772421 0)
(1.40276300022 -0.000945327728492 0)
(1.4025415246 -0.00145249048552 0)
(1.40215755261 -0.00223629007244 0)
(1.40149949287 -0.00344579265623 0)
(1.40037893587 -0.00530479300049 0)
(1.39848250863 -0.0081362161677 0)
(1.39529691288 -0.0123750620663 0)
(1.39000881864 -0.0185326238628 0)
(1.38146967336 -0.0270471683578 0)
(1.36818274858 -0.0380012557474 0)
(1.34775485165 -0.0505036926093 0)
(0.994011527504 0.0192358047206 0)
(1.03484761896 0.0523338381782 0)
(1.09199259389 0.072363125196 0)
(1.15662415238 0.0791292298402 0)
(1.22032110203 0.0761045442875 0)
(1.27701937755 0.0673339695874 0)
(1.32424410012 0.0561509017888 0)
(1.3618156334 0.044799009436 0)
(1.39068519159 0.0345303761742 0)
(1.41226061972 0.0258814311425 0)
(1.42801807695 0.0189465227146 0)
(1.4392986814 0.0135849807721 0)
(1.44722789985 0.00955653285619 0)
(1.45270394082 0.0066001138417 0)
(1.45641875124 0.00447418852621 0)
(1.45889122266 0.00297351159493 0)
(1.46050207347 0.00193276671991 0)
(1.4615254566 0.0012236917968 0)
(1.4621554588 0.00074954857529 0)
(1.46252727009 0.000439015841317 0)
(1.46273353379 0.000240519341856 0)
(1.46283666318 0.000117410282097 0)
(1.46287795241 4.40479623868e-05 0)
(1.46288417809 2.68969106309e-06 0)
(1.46287204032 -1.84453898964e-05 0)
(1.46285167581 -2.7439107737e-05 0)
(1.46282911148 -2.94388620895e-05 0)
(1.46280756026 -2.76887918801e-05 0)
(1.46278854996 -2.41867049939e-05 0)
(1.46277262489 -2.01138432896e-05 0)
(1.46275977632 -1.6118951244e-05 0)
(1.46274970995 -1.25247458914e-05 0)
(1.46274201508 -9.45783019673e-06 0)
(1.46273625949 -6.92906639771e-06 0)
(1.46273204447 -4.88470418757e-06 0)
(1.46272902769 -3.25540782464e-06 0)
(1.46272692085 -1.97813428465e-06 0)
(1.46272546709 -1.0118245528e-06 0)
(1.46272445433 -3.11547671034e-07 0)
(1.46272381805 2.10769662084e-07 0)
(1.4627234455 6.92288914918e-07 0)
(1.46272318694 1.16857760035e-06 0)
(1.46272300979 1.59372409722e-06 0)
(1.46272287482 1.97428419626e-06 0)
(1.46272275257 2.33135932349e-06 0)
(1.46272262398 2.67836059432e-06 0)
(1.46272247561 3.02071370255e-06 0)
(1.46272229898 3.35645935502e-06 0)
(1.46272208977 3.67610369199e-06 0)
(1.46272184562 3.96727018216e-06 0)
(1.46272156986 4.22210005535e-06 0)
(1.46272127042 4.40905531467e-06 0)
(1.46272095449 4.47721701546e-06 0)
(1.46272063195 4.35661213433e-06 0)
(1.46272031835 3.95635997795e-06 0)
(1.4627200352 3.16625932594e-06 0)
(1.46271976181 1.8653032847e-06 0)
(1.4627194035 -5.74765919295e-08 0)
(1.46271880985 -2.86053271023e-06 0)
(1.4627178495 -7.39350243496e-06 0)
(1.46271626042 -1.44423108908e-05 0)
(1.46271336219 -2.51030832255e-05 0)
(1.46270803249 -4.0918468677e-05 0)
(1.46269846155 -6.42671668849e-05 0)
(1.46268158584 -9.8747076442e-05 0)
(1.46265225937 -0.000149743989987 0)
(1.46260197226 -0.000225444454535 0)
(1.46251696594 -0.000338303402511 0)
(1.4623747578 -0.000506916267774 0)
(1.46213847302 -0.000759704253064 0)
(1.46174813855 -0.00114045415799 0)
(1.46110914186 -0.00171678779776 0)
(1.46007028713 -0.00258442799683 0)
(1.45839047367 -0.00388298280361 0)
(1.45569561985 -0.00580492189671 0)
(1.45142007364 -0.00859349530002 0)
(1.44474305163 -0.0125090694114 0)
(1.43459486524 -0.0177324142831 0)
(1.41971509696 -0.0242122491677 0)
(1.39825640789 -0.0314031761167 0)
(0.993269663471 0.00617014869706 0)
(1.03158098293 0.017102043543 0)
(1.08672178487 0.0239906460547 0)
(1.15174549679 0.0265606633993 0)
(1.21823530108 0.0258180566979 0)
(1.27925766563 0.0230488841774 0)
(1.33140126983 0.0193656297209 0)
(1.37377588359 0.0155468564119 0)
(1.40691041639 0.012044928809 0)
(1.43203300275 0.00906639841287 0)
(1.45060200315 0.0066605934576 0)
(1.46402969735 0.00479009016866 0)
(1.4735499852 0.00337842701034 0)
(1.48017544391 0.00233873685594 0)
(1.48470208368 0.00158891273508 0)
(1.48773598674 0.00105828781323 0)
(1.48972711144 0.000689461723852 0)
(1.49100252874 0.000437637398434 0)
(1.49179559629 0.000268884788879 0)
(1.49226995458 0.000158110233843 0)
(1.49253843437 8.71239023036e-05 0)
(1.49267749882 4.29742846922e-05 0)
(1.49273802032 1.65844880185e-05 0)
(1.49275318218 1.66405958213e-06 0)
(1.49274393312 -6.06850231498e-06 0)
(1.49272313283 -9.41353237681e-06 0)
(1.49269847641 -1.02194675879e-05 0)
(1.49267419195 -9.65596937728e-06 0)
(1.49265237686 -8.44190900192e-06 0)
(1.49263387248 -6.99520577135e-06 0)
(1.49261880158 -5.55590885133e-06 0)
(1.49260690204 -4.24417659092e-06 0)
(1.49259774425 -3.10748123675e-06 0)
(1.49259085263 -2.15200239013e-06 0)
(1.49258577318 -1.36157158604e-06 0)
(1.4925821057 -7.14401202825e-07 0)
(1.49257951442 -1.89067108828e-07 0)
(1.49257772934 2.36342325787e-07 0)
(1.49257654481 6.07901039485e-07 0)
(1.49257578313 9.77548234602e-07 0)
(1.49257529048 1.283283376e-06 0)
(1.49257497504 1.56839943016e-06 0)
(1.49257477923 1.85041694711e-06 0)
(1.49257465045 2.13957449394e-06 0)
(1.4925745495 2.44305496764e-06 0)
(1.49257445004 2.76363805361e-06 0)
(1.49257433358 3.10067048088e-06 0)
(1.49257418687 3.45008377069e-06 0)
(1.49257400002 3.80334605122e-06 0)
(1.49257376465 4.14637671675e-06 0)
(1.4925734752 4.4592950668e-06 0)
(1.49257312796 4.70991665021e-06 0)
(1.49257271666 4.85340844846e-06 0)
(1.49257222985 4.82865795868e-06 0)
(1.49257164673 4.55186553713e-06 0)
(1.49257093983 3.90648009815e-06 0)
(1.4925700961 2.74125697729e-06 0)
(1.49256898268 9.56496375622e-07 0)
(1.49256717627 -1.67105379169e-06 0)
(1.49256437429 -5.75760770362e-06 0)
(1.49256018986 -1.1844858091e-05 0)
(1.49255359966 -2.0701604494e-05 0)
(1.49254298786 -3.34129693265e-05 0)
(1.49252580896 -5.15295223586e-05 0)
(1.49249794973 -7.72462394657e-05 0)
(1.49245269937 -0.000113577019615 0)
(1.49237918675 -0.00016490919828 0)
(1.49226035399 -0.00023770420202 0)
(1.49206880638 -0.000340435695667 0)
(1.49175986698 -0.000485673822919 0)
(1.49126126282 -0.00069373399884 0)
(1.4904642812 -0.000998182934803 0)
(1.48919937379 -0.00143130646742 0)
(1.48720049568 -0.00204070393525 0)
(1.48406901769 -0.00288776986681 0)
(1.47922478906 -0.00404000935065 0)
(1.47186043595 -0.00555174104294 0)
(1.46096162531 -0.00742455657999 0)
(1.44537989883 -0.00956456818332 0)
(1.42350386551 -0.0117234571335 0)
(0.993270461266 -0.00616840365686 0)
(1.03158096549 -0.0171003788123 0)
(1.08672171849 -0.0239897648164 0)
(1.15174553438 -0.0265602500321 0)
(1.21823537877 -0.0258179960284 0)
(1.2792577674 -0.0230491128491 0)