/*--------------------------------*- C++ -*----------------------------------*\
| =========                 |                                                 |
| \\      /  F ield         | OpenFOAM: The Open Source CFD Toolbox           |
|  \\    /   O peration     | Version:  2106                                  |
|   \\  /    A nd           | Website:  www.openfoam.com                      |
|    \\/     M anipulation  |                                                 |
\*---------------------------------------------------------------------------*/
FoamFile
{
    version     2.0;
    format      ascii;
    arch        "LSB;label=32;scalar=64";
    class       volVectorField;
    location    "0.44";
    object      U;
}
// * * * * * * * * * * * * * * * * * * * * * * * * * * * * * * * * * * * * * //

dimensions      [0 1 -1 0 0 0 0];

internalField   nonuniform List<vector> 
11200
(
(0.662462403173 0.150569444286 0)
(0.558948668654 0.103243389715 0)
(0.383850727809 0.0513512254033 0)
(0.283747583893 0.0248708562788 0)
(0.232075259482 0.0124170461631 0)
(0.201908578935 0.00662281787727 0)
(0.18319792873 0.00380291576862 0)
(0.171276487127 0.00231587176533 0)
(0.163510305283 0.00146450855671 0)
(0.158388765698 0.00094489458606 0)
(0.155006620549 0.000615179006856 0)
(0.152786655881 0.000402235643623 0)
(0.151346493934 0.00026423365193 0)
(0.150428244286 0.00017525116522 0)
(0.149856627919 0.000118361340194 0)
(0.149512416073 8.21604577352e-05 0)
(0.149314847068 5.88663774927e-05 0)
(0.149209478282 4.33162369884e-05 0)
(0.149159612855 3.29352724395e-05 0)
(0.149142366573 2.81869611901e-05 0)
(0.149144514675 2.76850068999e-05 0)
(0.149156780895 2.98906982478e-05 0)
(0.149172391292 3.30508009462e-05 0)
(0.149187926878 3.59661385363e-05 0)
(0.149202123734 3.86012295648e-05 0)
(0.149214382268 4.10399607989e-05 0)
(0.149224535408 4.33170424807e-05 0)
(0.149232690179 4.5463661775e-05 0)
(0.149239082946 4.75191084781e-05 0)
(0.149243994924 4.95303229071e-05 0)
(0.149247709903 5.15591530843e-05 0)
(0.149250494149 5.36966601793e-05 0)
(0.149252544053 5.6025498779e-05 0)
(0.14925402955 5.84072561907e-05 0)
(0.149255083362 6.07682952745e-05 0)
(0.149255792902 6.30891297273e-05 0)
(0.149256256945 6.53804222158e-05 0)
(0.149256560617 6.76547187506e-05 0)
(0.149256758739 6.99240646008e-05 0)
(0.149256881152 7.21946492515e-05 0)
(0.149256948306 7.44674776506e-05 0)
(0.149256976494 7.67433833767e-05 0)
(0.149256976617 7.90218632361e-05 0)
(0.149256956432 8.13017971912e-05 0)
(0.149256921368 8.35814961039e-05 0)
(0.149256876312 8.58586702602e-05 0)
(0.14925682596 8.81306986467e-05 0)
(0.149256774491 9.0394446395e-05 0)
(0.149256726549 9.26467702909e-05 0)
(0.149256687209 9.48847208024e-05 0)
(0.149256663354 9.71050057091e-05 0)
(0.149256664927 9.93046553232e-05 0)
(0.149256705669 0.000101480756654 0)
(0.149256804789 0.00010362995009 0)
(0.149256988828 0.000105747840464 0)
(0.149257294272 0.000107828881642 0)
(0.149257772442 0.000109865860946 0)
(0.149258499431 0.000111848735358 0)
(0.149259584594 0.000113764658479 0)
(0.149261186097 0.000115589007226 0)
(0.149263553148 0.000117265110299 0)
(0.149267092574 0.000118711859815 0)
(0.149272269525 0.00011996919607 0)
(0.149279733747 0.000121231424896 0)
(0.14929051783 0.000122964295435 0)
(0.149306143533 0.000125340250373 0)
(0.14932900048 0.000128119475766 0)
(0.149362785012 0.000131077683987 0)
(0.149413092504 0.000134000508196 0)
(0.149488153852 0.000136775681456 0)
(0.149599903792 0.000140684447295 0)
(0.149771187136 0.000151556118574 0)
(0.150039764791 0.000172276318864 0)
(0.150468777197 0.000202515591586 0)
(0.151194013833 0.000232428814605 0)
(0.15249308939 0.000191624549616 0)
(0.155022089202 -0.000216763733954 0)
(0.162375156333 -0.00210987470336 0)
(0.187702060814 -0.010787459243 0)
(0.20435423939 -0.0496543725133 0)
(0.965408253043 0.289214708701 0)
(0.961962853831 0.252656041589 0)
(0.823574381057 0.159021443002 0)
(0.698139354661 0.0959957324971 0)
(0.610225448186 0.05824811552 0)
(0.548971476001 0.0362148548566 0)
(0.506588872852 0.0231612872345 0)
(0.477567250792 0.0151375177778 0)
(0.45774546833 0.0100177577289 0)
(0.444228428155 0.00665814356813 0)
(0.435053253012 0.00441555812235 0)
(0.428873056454 0.00290686686729 0)
(0.42475412213 0.0018910584716 0)
(0.422046553745 0.00121004446588 0)
(0.420297699289 0.000757161855926 0)
(0.419193075113 0.000459254008388 0)
(0.418515457499 0.000265852983053 0)
(0.418116300356 0.000142397924348 0)
(0.417895688123 6.61081050422e-05 0)
(0.417786629144 2.30910268824e-05 0)
(0.417745206811 1.4062460193e-06 0)
(0.417741921301 -1.0165059228e-05 0)
(0.417756510692 -1.37170210565e-05 0)
(0.41777846162 -1.32709270766e-05 0)
(0.417802749259 -1.08393218984e-05 0)
(0.417826114717 -7.49673950935e-06 0)
(0.417846864931 -3.88054658865e-06 0)
(0.417864401169 -3.60769145807e-07 0)
(0.41787872678 2.86108800338e-06 0)
(0.417890156129 5.68104557361e-06 0)
(0.417899159808 8.03473568825e-06 0)
(0.417906230258 9.83753368438e-06 0)
(0.417911568892 1.10072531671e-05 0)
(0.417915409159 1.18598264426e-05 0)
(0.417918129202 1.26809099623e-05 0)
(0.417920005882 1.34368482087e-05 0)
(0.41792128296 1.41101697372e-05 0)
(0.417922153216 1.47246491462e-05 0)
(0.417922744405 1.53098541606e-05 0)
(0.41792312835 1.58794430933e-05 0)
(0.417923356993 1.64335153813e-05 0)
(0.417923472594 1.69769673434e-05 0)
(0.417923504673 1.75130786098e-05 0)
(0.417923475013 1.80450687733e-05 0)
(0.417923399151 1.85764326874e-05 0)
(0.417923289756 1.91094438853e-05 0)
(0.417923158023 1.96461067307e-05 0)
(0.417923014491 2.01880511183e-05 0)
(0.417922871298 2.0737272951e-05 0)
(0.417922741858 2.12961497142e-05 0)
(0.417922643878 2.18645804101e-05 0)
(0.417922602542 2.24425625802e-05 0)
(0.417922652235 2.30304000935e-05 0)
(0.417922840481 2.3628091514e-05 0)
(0.417923233633 2.42348785659e-05 0)
(0.417923924667 2.48501177164e-05 0)
(0.417925045795 2.54703263934e-05 0)
(0.417926792564 2.60840803132e-05 0)
(0.417929443636 2.66742327568e-05 0)
(0.417933389011 2.72106605123e-05 0)
(0.417939237093 2.76400466853e-05 0)
(0.417948085067 2.79193941415e-05 0)
(0.417961414486 2.8207981203e-05 0)
(0.417981370505 2.77421749289e-05 0)
(0.418010709794 2.51115756023e-05 0)
(0.418053040444 1.92636475954e-05 0)
(0.418114566473 9.39114680046e-06 0)
(0.418205409306 -6.04016610656e-06 0)
(0.4183411722 -2.95543429107e-05 0)
(0.41854675094 -6.48312283155e-05 0)
(0.418864038382 -0.000116058570877 0)
(0.419362617523 -0.000188200311931 0)
(0.420155937392 -0.000307979657553 0)
(0.42144762842 -0.000532944822148 0)
(0.423629270357 -0.000999891485708 0)
(0.427419427616 -0.00209045705753 0)
(0.434239996495 -0.00485604063538 0)
(0.448265415617 -0.0122527934187 0)
(0.474641752597 -0.0342382614872 0)
(0.478158188652 -0.0987596516024 0)
(1.02222096394 0.238416186922 0)
(1.08213752436 0.295926652662 0)
(1.03447721707 0.239503066381 0)
(0.954615397715 0.174290164618 0)
(0.879992043931 0.121345468928 0)
(0.818614424991 0.0830993849676 0)
(0.771410841013 0.0567316680974 0)
(0.736634380655 0.03874096931 0)
(0.711624419372 0.0264327871374 0)
(0.693916600756 0.0179731038159 0)
(0.681541380509 0.0121424458501 0)
(0.673000074452 0.00812490490808 0)
(0.667180593869 0.00536631674152 0)
(0.663271607946 0.00348443971244 0)
(0.660688421709 0.00221255614705 0)
(0.65901408421 0.0013633765815 0)
(0.657954392061 0.000805238928472 0)
(0.657304089541 0.00044591213025 0)
(0.656921662423 0.000221064240318 0)
(0.656710088415 8.55770047833e-05 0)
(0.656603215022 8.35339977988e-06 0)
(0.656561656458 -3.37250842214e-05 0)
(0.65655774592 -5.68602033919e-05 0)
(0.656571211275 -6.68796706111e-05 0)
(0.656592731305 -6.84873268078e-05 0)
(0.656616543021 -6.55659385895e-05 0)
(0.656639339359 -6.05546886949e-05 0)
(0.65665951325 -5.48641810985e-05 0)
(0.656676478863 -4.92791374206e-05 0)
(0.656690213131 -4.42067761758e-05 0)
(0.656700961071 -3.98421337428e-05 0)
(0.65670910584 -3.63037335197e-05 0)
(0.656715342401 -3.36976890091e-05 0)
(0.656720360998 -3.18600773461e-05 0)
(0.656724206918 -3.08143779514e-05 0)
(0.656726896678 -3.03079997567e-05 0)
(0.656728743149 -3.02524438305e-05 0)
(0.656730027368 -3.05631547076e-05 0)
(0.656730918229 -3.10902642322e-05 0)
(0.656731505528 -3.17511223644e-05 0)
(0.656731862724 -3.25164955375e-05 0)
(0.656732053979 -3.33517762165e-05 0)
(0.656732123186 -3.42324155788e-05 0)
(0.656732104086 -3.51397208078e-05 0)
(0.656732020704 -3.60580543168e-05 0)
(0.656731891676 -3.69762761508e-05 0)
(0.656731733931 -3.78867504807e-05 0)
(0.656731563648 -3.87838962478e-05 0)
(0.656731398905 -3.96633548393e-05 0)
(0.656731257852 -4.05195241529e-05 0)
(0.656731164457 -4.13491706331e-05 0)
(0.656731154967 -4.21482137388e-05 0)
(0.656731279378 -4.29147255025e-05 0)
(0.656731606996 -4.36520545601e-05 0)
(0.65673223591 -4.43743231007e-05 0)
(0.656733302693 -4.51119726129e-05 0)
(0.656734997049 -4.59224709578e-05 0)
(0.65673760005 -4.69001022148e-05 0)
(0.656741522082 -4.8170258574e-05 0)
(0.656747358646 -4.9954277803e-05 0)
(0.656756052678 -5.27709800554e-05 0)
(0.656769254506 -5.7600326032e-05 0)
(0.656788255804 -6.52653109665e-05 0)
(0.65681450559 -7.66190622413e-05 0)
(0.656851876936 -9.33663781805e-05 0)
(0.656907082187 -0.000117895056225 0)
(0.65698949224 -0.000153408856277 0)
(0.657112902758 -0.000205196235962 0)
(0.657299135273 -0.000281776524083 0)
(0.657583586835 -0.000397023609749 0)
(0.658024385704 -0.000575283715981 0)
(0.658710715734 -0.000863815654705 0)
(0.659789612822 -0.00135267510814 0)
(0.661518579682 -0.00221494776715 0)
(0.664339697805 -0.00381310727561 0)
(0.668948571872 -0.006945809981 0)
(0.676370819598 -0.0133514029556 0)
(0.68861382831 -0.0268403289543 0)
(0.705235899864 -0.0563119489512 0)
(0.700483866731 -0.11306669714 0)
(1.02251475294 0.170807151483 0)
(1.1013897515 0.276496478093 0)
(1.1175242512 0.266664799004 0)
(1.09214659322 0.219901699202 0)
(1.05187814292 0.168168848338 0)
(1.01020821119 0.123567397662 0)
(0.97349467679 0.0888375224291 0)
(0.94386453917 0.0630063718864 0)
(0.921142776821 0.044223203385 0)
(0.904284040315 0.0307423906098 0)
(0.89207482326 0.0211562904462 0)
(0.883404449309 0.0143954634982 0)
(0.877352592085 0.00966794220181 0)
(0.873197612033 0.00639383068948 0)
(0.870392819481 0.00415115829411 0)
(0.868533916892 0.0026344847197 0)
(0.867327508152 0.00162401167753 0)
(0.86656409464 0.00096267082524 0)
(0.866096327738 0.000539117510215 0)
(0.865822076047 0.00027514857152 0)
(0.865671222349 0.000117063078333 0)
(0.865594961531 2.87867543283e-05 0)
(0.86556389335 -1.93309900652e-05 0)
(0.865561075456 -4.12678009859e-05 0)
(0.865572410518 -4.76720141986e-05 0)
(0.865589409722 -4.5531127884e-05 0)
(0.865607714353 -3.91609553602e-05 0)
(0.865625050061 -3.1148907784e-05 0)
(0.865640332143 -2.29663607877e-05 0)
(0.865653192502 -1.53814293365e-05 0)
(0.865663661609 -8.72308607503e-06 0)
(0.865671941925 -3.04384487852e-06 0)
(0.865678284925 1.73427599165e-06 0)
(0.865682899271 5.46491340482e-06 0)
(0.865686203636 8.03183083064e-06 0)
(0.865688586504 9.78862720412e-06 0)
(0.865690203813 1.11413233575e-05 0)
(0.865691353008 1.2286274475e-05 0)
(0.865692211959 1.32552604644e-05 0)
(0.865692798969 1.41426697313e-05 0)
(0.865693160881 1.49387076702e-05 0)
(0.865693361208 1.56654414234e-05 0)
(0.865693437478 1.63388603407e-05 0)
(0.865693420589 1.69746273995e-05 0)
(0.865693332968 1.75872310999e-05 0)
(0.865693191266 1.81882179275e-05 0)
(0.865693011272 1.87845705082e-05 0)
(0.865692809438 1.93821620132e-05 0)
(0.865692607128 1.99878312368e-05 0)
(0.865692427324 2.06122420933e-05 0)
(0.865692300205 2.12411713853e-05 0)
(0.865692268386 2.18615306773e-05 0)
(0.865692385814 2.24565978535e-05 0)
(0.865692723055 2.30001327211e-05 0)
(0.865693376004 2.34571667857e-05 0)
(0.865694475998 2.37965788008e-05 0)
(0.865696208676 2.39679900494e-05 0)
(0.865698869419 2.38547387334e-05 0)
(0.86570286345 2.33156808064e-05 0)
(0.865708601776 2.193113812e-05 0)
(0.865716580385 1.91428373965e-05 0)
(0.865728408696 1.421934786e-05 0)
(0.865746662179 5.34183035176e-06 0)
(0.865774323765 -9.05961748395e-06 0)
(0.865815256243 -3.09874968837e-05 0)
(0.865875388613 -6.44117552983e-05 0)
(0.865964067852 -0.000116206920857 0)
(0.866095812238 -0.000197130518672 0)
(0.86629317428 -0.000324437614072 0)
(0.866590973607 -0.000526595910578 0)
(0.867042809363 -0.00085253876002 0)
(0.867733729941 -0.00138918038608 0)
(0.868800052024 -0.00228524797298 0)
(0.870454968988 -0.00381525890393 0)
(0.873017253813 -0.00650332847962 0)
(0.876885607646 -0.0113586258515 0)
(0.882382226465 -0.0202497881316 0)
(0.889689868158 -0.0364467008369 0)
(0.896362990516 -0.0654798654409 0)
(0.886531182673 -0.110019875177 0)
(1.01287874907 0.11896102229 0)
(1.08820670109 0.231806936752 0)
(1.13741365953 0.253106765165 0)
(1.15409085247 0.228992754895 0)
(1.14994209224 0.188368360909 0)
(1.13538463704 0.146579846366 0)
(1.11758892892 0.110150967803 0)
(1.1005949797 0.0808162233443 0)
(1.08612454283 0.0582265761832 0)
(1.07459088663 0.0413189829363 0)
(1.06579141603 0.0289160162474 0)
(1.05928792288 0.0199600943424 0)
(1.0545996809 0.0135815533252 0)
(1.0512906659 0.00909743593634 0)
(1.04899973246 0.00598614695004 0)
(1.04744327555 0.00385696008872 0)
(1.04640639029 0.00242159250169 0)
(1.04573046452 0.00147014558851 0)
(1.0453008992 0.000851698076547 0)
(1.04503639208 0.000459012657603 0)
(1.04488001913 0.000216753032158 0)
(1.04479239212 7.30135851268e-05 0)
(1.0447485164 -5.50877568334e-06 0)
(1.04473160713 -4.4013590754e-05 0)
(1.04472934779 -5.93908668345e-05 0)
(1.04473482485 -6.17240898019e-05 0)
(1.04474376786 -5.72495448755e-05 0)
(1.04475364842 -4.98062578273e-05 0)
(1.0447630858 -4.16454964482e-05 0)
(1.04477140878 -3.39886153911e-05 0)
(1.044778366 -2.74221073798e-05 0)
(1.04478394357 -2.21499900294e-05 0)
(1.04478828701 -1.8127050685e-05 0)
(1.04479160816 -1.51390898765e-05 0)
(1.0447941627 -1.28093221295e-05 0)
(1.0447962449 -1.10145869696e-05 0)
(1.04479796868 -9.52768128575e-06 0)
(1.04479928092 -8.23873403853e-06 0)
(1.04480025255 -7.21827372884e-06 0)
(1.04480093429 -6.54717352394e-06 0)
(1.04480134598 -6.16643752242e-06 0)
(1.04480157447 -5.95697392919e-06 0)
(1.04480166374 -5.86755500832e-06 0)
(1.04480165147 -5.85118241829e-06 0)
(1.04480156362 -5.86649208387e-06 0)
(1.04480141787 -5.89273530687e-06 0)
(1.04480123129 -5.92038401224e-06 0)
(1.04480102493 -5.94471859563e-06 0)
(1.04480082655 -5.96871535157e-06 0)
(1.04480064361 -6.00690035554e-06 0)
(1.04480049025 -6.04246371889e-06 0)
(1.0448004122 -6.07212231424e-06 0)
(1.04480046502 -6.10193738948e-06 0)
(1.04480072611 -6.14737706218e-06 0)
(1.0448013228 -6.24877756548e-06 0)
(1.04480242617 -6.53067465843e-06 0)
(1.04480422322 -7.24772383399e-06 0)
(1.04480702154 -8.67705454591e-06 0)
(1.04481112887 -1.13125484479e-05 0)
(1.04481701711 -1.51523023937e-05 0)
(1.04482569564 -2.00816532128e-05 0)
(1.04483831554 -2.63348924397e-05 0)
(1.04485618511 -3.61744097686e-05 0)
(1.04488160247 -5.25870701734e-05 0)
(1.04491803799 -7.97866481272e-05 0)
(1.04497064958 -0.000124015257552 0)
(1.04504704602 -0.000195041403756 0)
(1.0451585811 -0.000308441901852 0)
(1.04532240544 -0.0004893774831 0)
(1.04556438533 -0.000778861997028 0)
(1.04592319868 -0.00124419712695 0)
(1.04645669008 -0.00199699688647 0)
(1.04724895362 -0.00322774941823 0)
(1.04841289674 -0.00526714049355 0)
(1.05007576417 -0.00869184473728 0)
(1.05229411957 -0.014495306569 0)
(1.05482386069 -0.0242840497182 0)
(1.05687533779 -0.0403671848639 0)
(1.0557429217 -0.0655828356022 0)
(1.04212998623 -0.0994325629561 0)
(1.00447483254 0.0814039966831 0)
(1.06917236611 0.181288539396 0)
(1.13080567486 0.216950419998 0)
(1.17374998883 0.210789157598 0)
(1.19865263544 0.183690079486 0)
(1.21019986308 0.149751686027 0)
(1.21350253953 0.116779146217 0)
(1.21251721956 0.0882206787224 0)
(1.20973095614 0.0650481499111 0)
(1.20651116001 0.0470209057007 0)
(1.20351908439 0.0334068031618 0)
(1.20101138836 0.0233557253449 0)
(1.19903437161 0.0160720054789 0)
(1.19753868378 0.0108795050054 0)
(1.19644120385 0.00723417984401 0)
(1.19565546135 0.00471351133348 0)
(1.1951047535 0.00299762324859 0)
(1.19472632973 0.00184915628231 0)
(1.19447133845 0.00109495683497 0)
(1.19430301774 0.000610608338607 0)
(1.1941943676 0.000307983543156 0)
(1.19412607165 0.000125765130595 0)
(1.19408501055 2.22191304746e-05 0)
(1.19406174108 -3.24565795568e-05 0)
(1.19404943133 -5.72754265684e-05 0)
(1.19404392476 -6.46005496256e-05 0)
(1.1940424208 -6.23775597029e-05 0)
(1.19404310042 -5.55214837449e-05 0)
(1.19404484695 -4.69429966577e-05 0)
(1.19404700094 -3.82558468761e-05 0)
(1.1940491887 -3.02613288728e-05 0)
(1.19405121749 -2.32651146956e-05 0)
(1.19405301813 -1.72903687362e-05 0)
(1.19405458519 -1.22632403902e-05 0)
(1.19405593633 -8.07703764648e-06 0)
(1.19405709214 -4.67703880445e-06 0)
(1.19405802711 -2.06604471272e-06 0)
(1.19405869011 -1.75546204439e-07 0)
(1.19405904036 1.14477775577e-06 0)
(1.19405915119 2.00164865095e-06 0)
(1.19405920394 2.67942768585e-06 0)
(1.19405923604 3.28007839754e-06 0)
(1.19405921745 3.80346237156e-06 0)
(1.1940591647 4.26115800515e-06 0)
(1.19405907623 4.66389983658e-06 0)
(1.19405894259 5.02736701189e-06 0)
(1.19405876712 5.36387447369e-06 0)
(1.19405855764 5.67722493819e-06 0)
(1.19405832226 5.95959915603e-06 0)
(1.19405810247 6.19263727429e-06 0)
(1.1940579478 6.39977260819e-06 0)
(1.19405788887 6.57550775682e-06 0)
(1.19405797357 6.69333979086e-06 0)
(1.19405825843 6.7123651513e-06 0)
(1.19405877137 6.57081042359e-06 0)
(1.1940594973 6.17121900114e-06 0)
(1.19406053654 5.37498328466e-06 0)
(1.19406203996 3.77179331946e-06 0)
(1.19406471233 9.87358892044e-07 0)
(1.1940695726 -3.29484973148e-06 0)
(1.1940771041 -9.85709513152e-06 0)
(1.19408725768 -2.00674252034e-05 0)
(1.1941008271 -3.59527045809e-05 0)
(1.19411980343 -6.04350938674e-05 0)
(1.19414631364 -9.80982366886e-05 0)
(1.19418318697 -0.00015626125981 0)
(1.1942344224 -0.000246570508912 0)
(1.19430566221 -0.000387505621495 0)
(1.19440480074 -0.000608522879907 0)
(1.19454262611 -0.00095694871683 0)
(1.19473319113 -0.00150928285109 0)
(1.19499327533 -0.00238978735644 0)
(1.19533770301 -0.00380164985929 0)
(1.19576374089 -0.00607772342818 0)
(1.19621106403 -0.00975671508948 0)
(1.19645995412 -0.0156822064847 0)
(1.19592363638 -0.0250647173938 0)
(1.19344770557 -0.0393593193667 0)
(1.18669737384 -0.0598081875812 0)
(1.17015490061 -0.0851002603487 0)
(0.9989623235 0.054431625028 0)
(1.05310956132 0.133401608904 0)
(1.11628267038 0.170777560303 0)
(1.17301270462 0.175143874858 0)
(1.21791244595 0.159583609605 0)
(1.25049856141 0.134951023296 0)
(1.27288489226 0.108411659254 0)
(1.2877671986 0.083884972732 0)
(1.29745265098 0.0630565711774 0)
(1.30366071202 0.0462999178722 0)
(1.30759229288 0.0333205090781 0)
(1.31005363647 0.0235495164933 0)
(1.31157354524 0.0163598991907 0)
(1.31249483304 0.0111713063592 0)
(1.31303851229 0.00749149847392 0)
(1.31334659172 0.00492447879328 0)
(1.31350999501 0.00316294945181 0)
(1.31358661542 0.00197474725179 0)
(1.31361298271 0.00118819299335 0)
(1.31361182413 0.000678625604741 0)
(1.31359697719 0.000357004474326 0)
(1.31357664659 0.000160749507932 0)
(1.31355564318 4.64639451646e-05 0)
(1.31353633982 -1.58751415111e-05 0)
(1.31351967582 -4.60637896e-05 0)
(1.31350598287 -5.70731845852e-05 0)
(1.31349507598 -5.73266016776e-05 0)
(1.31348661755 -5.20863901045e-05 0)
(1.31348021816 -4.4522273845e-05 0)
(1.31347549148 -3.64590826129e-05 0)
(1.3134720851 -2.88701977663e-05 0)
(1.31346969521 -2.22091094683e-05 0)
(1.3134680626 -1.66275072924e-05 0)
(1.31346695957 -1.21323718841e-05 0)
(1.31346622207 -8.65725072851e-06 0)
(1.31346575415 -6.10025301559e-06 0)
(1.3134654565 -4.32363086587e-06 0)
(1.31346524088 -3.12058430522e-06 0)
(1.31346510275 -2.26287943737e-06 0)
(1.31346512757 -1.54637762276e-06 0)
(1.31346527864 -9.68970013156e-07 0)
(1.31346537695 -5.56368510913e-07 0)
(1.31346537233 -2.01600575483e-07 0)
(1.31346529515 1.30043019332e-07 0)
(1.31346516513 4.35543554916e-07 0)
(1.31346499579 7.22577379543e-07 0)
(1.31346479165 1.00253148382e-06 0)
(1.31346455578 1.2848548377e-06 0)
(1.31346429789 1.57907022465e-06 0)
(1.31346405211 1.8907044174e-06 0)
(1.31346384331 2.17037277129e-06 0)
(1.3134636794 2.3779703934e-06 0)
(1.31346359114 2.46852865822e-06 0)
(1.31346363266 2.37886181619e-06 0)
(1.31346389163 2.02201392969e-06 0)
(1.31346448948 1.31754474406e-06 0)
(1.31346537685 2.09014444603e-07 0)
(1.31346668726 -1.47626727345e-06 0)
(1.31346884236 -4.00481650144e-06 0)
(1.31347202312 -8.10272328955e-06 0)
(1.31347645895 -1.50483740336e-05 0)
(1.31348237931 -2.64024955454e-05 0)
(1.31349006892 -4.3764604728e-05 0)
(1.31350001606 -7.03168923809e-05 0)
(1.31351254229 -0.000111090112506 0)
(1.3135277397 -0.000173833187686 0)
(1.31354523794 -0.000270628756317 0)
(1.3135637386 -0.000420433995371 0)
(1.31358006892 -0.000653062912246 0)
(1.31358734491 -0.00101572603861 0)
(1.31357153217 -0.00158340640056 0)
(1.31350522502 -0.00247512269868 0)
(1.31333425395 -0.00387806669076 0)
(1.3129511304 -0.00608448759395 0)
(1.31214597714 -0.00953868403713 0)
(1.31051363568 -0.0148818866766 0)
(1.30730108711 -0.0229418823623 0)
(1.3012992757 -0.0345583584688 0)
(1.29064139792 -0.0501678097761 0)
(1.27185706972 -0.0685426666781 0)
(0.995736072114 0.034633860215 0)
(1.04179513774 0.0905689231283 0)
(1.10222837796 0.121549567771 0)
(1.16491410558 0.129605837565 0)
(1.22202565177 0.122009272248 0)
(1.26951890838 0.106019941951 0)
(1.30680222474 0.0870975586231 0)
(1.33499533766 0.0686366819732 0)
(1.35574475353 0.0523698375866 0)
(1.37069613859 0.0389256139024 0)
(1.38128271561 0.0282980668877 0)
(1.38866262461 0.0201712687734 0)
(1.39373026699 0.0141175009448 0)
(1.39715652713 0.00970532649324 0)
(1.39943425562 0.00655058651481 0)
(1.4009195657 0.00433444725957 0)
(1.40186610142 0.00280413919243 0)
(1.40245211216 0.00176573892062 0)
(1.40280120028 0.00107419201393 0)
(1.40299788754 0.000623232362159 0)
(1.403099099 0.000336406336589 0)
(1.40314254261 0.000159619572912 0)
(1.40315279409 5.5159854484e-05 0)
(1.40314529754 -3.00299091173e-06 0)
(1.40312953259 -3.21274917165e-05 0)
(1.40311112716 -4.38944771679e-05 0)
(1.40309308796 -4.57633621042e-05 0)
(1.40307693882 -4.24196159644e-05 0)
(1.40306327988 -3.67270766711e-05 0)
(1.4030521838 -3.0362995598e-05 0)
(1.4030434476 -2.42425240422e-05 0)
(1.40303674528 -1.88125137256e-05 0)
(1.40303171597 -1.42415239218e-05 0)
(1.40302801064 -1.05313864401e-05 0)
(1.40302533272 -7.58096011435e-06 0)
(1.40302345147 -5.26501746755e-06 0)
(1.40302219163 -3.46026895202e-06 0)
(1.4030214032 -2.02367476183e-06 0)
(1.40302092079 -8.50725539373e-07 0)
(1.40302055055 8.16701745334e-08 0)
(1.40302022159 7.91609949213e-07 0)
(1.40302001285 1.28233643624e-06 0)
(1.40301991477 1.65388132984e-06 0)
(1.40301983591 1.97026020092e-06 0)
(1.40301974001 2.27011614477e-06 0)
(1.40301962035 2.57203782549e-06 0)
(1.40301947585 2.88512139968e-06 0)
(1.40301930906 3.21344149268e-06 0)
(1.40301912262 3.55761758864e-06 0)
(1.40301891034 3.90941266069e-06 0)
(1.40301868325 4.22758156684e-06 0)
(1.40301847523 4.47921354393e-06 0)
(1.40301831596 4.62609183564e-06 0)
(1.40301822873 4.60865439362e-06 0)
(1.40301822805 4.33856267756e-06 0)
(1.40301832376 3.67593149377e-06 0)
(1.40301853744 2.41621544324e-06 0)
(1.40301884179 4.30906501542e-07 0)
(1.40301948972 -2.7125990508e-06 0)
(1.40302067996 -7.75492754951e-06 0)
(1.40302223321 -1.5507991713e-05 0)
(1.40302382598 -2.72953515183e-05 0)
(1.40302499401 -4.49735656667e-05 0)
(1.4030249978 -7.15331699604e-05 0)
(1.40302235129 -0.000111565074285 0)
(1.40301432345 -0.000172100824708 0)
(1.40299611737 -0.000264014480476 0)
(1.40295955887 -0.000404182876593 0)
(1.40289072819 -0.0006186679442 0)
(1.40276593464 -0.000948074944402 0)
(1.40254516473 -0.00145571706065 0)
(1.40216209867 -0.00224001107902 0)
(1.4015052563 -0.00344998175802 0)
(1.40038639067 -0.00530928961337 0)
(1.39849234783 -0.00814064213273 0)
(1.39531017827 -0.0123786801983 0)
(1.39002711733 -0.0185341179344 0)
(1.38149551813 -0.0270443483813 0)
(1.36822011567 -0.0379907051667 0)
(1.34781007654 -0.0504804693464 0)
(0.994011529441 0.0192358071886 0)
(1.03484763006 0.0523338427136 0)
(1.09199261767 0.0723631305465 0)
(1.15662418834 0.0791292356251 0)
(1.2203211507 0.0761045500825 0)
(1.27701943924 0.0673339747254 0)
(1.32424417412 0.0561509055812 0)
(1.36181571801 0.0447990111804 0)
(1.39068528457 0.0345303753287 0)
(1.41226071853 0.0258814275639 0)
(1.4280181793 0.0189465167032 0)
(1.43929878562 0.0135849730313 0)
(1.44722800519 0.00955652429285 0)
(1.45270404746 0.00660010552916 0)
(1.45641886 0.00447418142158 0)
(1.45889133465 0.00297350629172 0)
(1.46050218958 0.00193276344781 0)
(1.46152557724 0.00122369037996 0)
(1.46215558392 0.000749548511459 0)
(1.46252739932 0.000439016411078 0)
(1.46273366677 0.000240519734938 0)
(1.46283680001 0.000117409833158 0)
(1.46287809381 4.40465440422e-05 0)
(1.46288432558 2.68736102435e-06 0)
(1.46287219589 -1.84480312628e-05 0)
(1.46285184135 -2.7441420109e-05 0)
(1.46282928854 -2.94402266692e-05 0)
(1.46280774937 -2.76887645541e-05 0)
(1.46278875014 -2.41851722938e-05 0)
(1.46277283407 -2.01112280438e-05 0)
(1.46275999155 -1.61159318074e-05 0)
(1.46274992765 -1.25220332376e-05 0)
(1.46274223219 -9.45587752187e-06 0)
(1.4627364741 -6.92810077098e-06 0)
(1.46273225619 -4.88476591828e-06 0)
(1.46272923755 -3.25594500085e-06 0)
(1.46272713107 -1.9783392312e-06 0)
(1.46272568045 -1.01126804908e-06 0)
(1.46272467234 -3.10184119081e-07 0)
(1.46272404206 2.13043927326e-07 0)
(1.46272367745 6.92921227497e-07 0)
(1.46272342694 1.16720316594e-06 0)
(1.46272325723 1.59046066769e-06 0)
(1.46272312962 1.96751119206e-06 0)
(1.46272301456 2.31967162208e-06 0)
(1.46272289304 2.66060416954e-06 0)
(1.46272275168 2.99557895721e-06 0)
(1.46272258268 3.32250155962e-06 0)
(1.46272238268 3.63197345069e-06 0)
(1.46272214984 3.91082993515e-06 0)
(1.46272188731 4.15144135167e-06 0)
(1.46272160346 4.32227099737e-06 0)
(1.46272130497 4.37179812608e-06 0)
(1.46272100259 4.22820867101e-06 0)
(1.46272071624 3.80404266008e-06 0)
(1.46272046831 2.98894954736e-06 0)
(1.46272020587 1.66062595766e-06 0)
(1.46271985253 -3.14345228469e-07 0)
(1.46271930415 -3.15777101466e-06 0)
(1.46271840289 -7.76109014229e-06 0)
(1.46271687041 -1.49058911954e-05 0)
(1.46271403453 -2.56838674142e-05 0)
(1.46270877921 -4.16445691612e-05 0)
(1.46269929898 -6.51750061422e-05 0)
(1.46268253601 -9.98790337539e-05 0)
(1.46265335825 -0.000151151278734 0)
(1.4626032619 -0.000227174087534 0)
(1.46251849316 -0.00034042640696 0)
(1.46237660527 -0.000509526998533 0)
(1.46214078305 -0.000762893219252 0)
(1.46175107376 -0.00114425593123 0)
(1.46111289608 -0.00172129271726 0)
(1.46007520917 -0.00258975762373 0)
(1.45839712954 -0.00388915203026 0)
(1.45570485324 -0.00581181815421 0)
(1.4514331772 -0.00860080613413 0)
(1.44476202639 -0.0125161513754 0)
(1.43462280148 -0.0177381206381 0)
(1.41975675515 -0.0242147298279 0)
(1.39831910517 -0.0313996900006 0)
(0.99326966555 0.00617015187709 0)
(1.0315809944 0.0171020487556 0)
(1.08672180906 0.0239906520653 0)
(1.15174553301 0.0265606696786 0)
(1.21823534962 0.0258180626464 0)
(1.27925772658 0.0230488892817 0)
(1.3314013425 0.0193656331577 0)
(1.37377596635 0.0155468575812 0)
(1.40691050721 0.0120449272646 0)
(1.43203309943 0.00906639410992 0)
(1.45060210374 0.00666058680193 0)
(1.46402980045 0.00479008193971 0)
(1.47355009021 0.00337841820045 0)
(1.48017555105 0.00233872852811 0)
(1.48470219357 0.00158890587819 0)
(1.48773610013 0.00105828299057 0)
(1.48972722891 0.000689459062343 0)
(1.49100265043 0.00043763666975 0)
(1.49179572193 0.000268885446235 0)
(1.49227008366 0.000158111549464 0)
(1.49253856653 8.7125086489e-05 0)
(1.49267763442 4.2974720423e-05 0)
(1.49273816042 1.65838263863e-05 0)
(1.49275332851 1.66246270947e-06 0)
(1.49274408791 -6.07045495432e-06 0)
(1.49272329808 -9.41528103596e-06 0)
(1.49269865353 -1.02203452922e-05 0)
(1.49267438125 -9.65578070812e-06 0)
(1.49265257706 -8.44033128622e-06 0)
(1.49263408119 -6.99249047498e-06 0)
(1.49261901568 -5.55299093444e-06 0)
(1.492607118 -4.24177792298e-06 0)
(1.49259795927 -3.10590303183e-06 0)
(1.492591065 -2.1511946974e-06 0)
(1.49258598271 -1.3614140601e-06 0)
(1.49258231376 -7.1435121852e-07 0)
(1.492579723 -1.88519225074e-07 0)
(1.49257794055 2.37522068559e-07 0)
(1.49257676117 6.09585414829e-07 0)
(1.49257600596 9.80196812488e-07 0)
(1.49257552006 1.2858048449e-06 0)
(1.49257521132 1.56913165699e-06 0)
(1.49257502179 1.84840280418e-06 0)
(1.49257489906 2.13352462409e-06 0)
(1.49257480401 2.43153630949e-06 0)
(1.49257471028 2.74518228014e-06 0)
(1.49257459938 3.07400855188e-06 0)
(1.4925744588 3.41396766437e-06 0)
(1.49257427944 3.75640489725e-06 0)
(1.49257405378 4.08704740003e-06 0)
(1.49257377612 4.38635743628e-06 0)
(1.49257344198 4.62260071173e-06 0)
(1.49257304442 4.7480844346e-06 0)
(1.49257257346 4.7021333407e-06 0)
(1.49257200759 4.4008670224e-06 0)
(1.49257131886 3.71767435139e-06 0)
(1.49257049295 2.49981354257e-06 0)
(1.49256938777 6.89088800593e-07 0)
(1.49256759678 -1.98156924892e-06 0)
(1.49256482678 -6.14302121366e-06 0)
(1.49256067556 -1.23243569458e-05 0)
(1.49255411759 -2.13010721291e-05 0)
(1.49254354155 -3.41646346987e-05 0)
(1.49252640711 -5.24706781113e-05 0)
(1.49249860408 -7.84228448462e-05 0)
(1.49245344026 -0.000115057628208 0)
(1.4923800424 -0.00016674766711 0)
(1.4922613404 -0.000240001984397 0)
(1.49206998723 -0.000343334080267 0)
(1.49176140907 -0.000489280260373 0)
(1.49126331058 -0.000697978901405 0)
(1.49046694129 -0.00100322053285 0)
(1.48920298274 -0.00143751367731 0)
(1.48720566752 -0.00204833450218 0)
(1.48407664311 -0.00289703155886 0)
(1.47923624657 -0.00405109055527 0)
(1.47187788183 -0.00556478101984 0)
(1.46098839418 -0.00743959084101 0)
(1.44542110406 -0.00958146813747 0)
(1.42356733335 -0.011741906425 0)
(0.993270463466 -0.00616839989519 0)
(1.03158097722 -0.0171003731433 0)
(1.08672174288 -0.0239897584051 0)
(1.1517455705 -0.0265602435081 0)
(1.21823542687 -0.0258179900966 0)
(1.27925782742 -0.0230491080795 0)
(1.33140146676 -0.0193660467627 0)