/*--------------------------------*- C++ -*----------------------------------*\
| =========                 |                                                 |
| \\      /  F ield         | OpenFOAM: The Open Source CFD Toolbox           |
|  \\    /   O peration     | Version:  2106                                  |
|   \\  /    A nd           | Website:  www.openfoam.com                      |
|    \\/     M anipulation  |                                                 |
\*---------------------------------------------------------------------------*/
FoamFile
{
    version     2.0;
    format      ascii;
    arch        "LSB;label=32;scalar=64";
    class       surfaceScalarField;
    location    "0.38";
    object      phi;
}
// * * * * * * * * * * * * * * * * * * * * * * * * * * * * * * * * * * * * * //

dimensions      [0 3 -1 0 0 0 0];

oriented        oriented;

internalField   nonuniform List<scalar> 
18840
(
3.37543034112e-05
1.62456965894e-05
2.25359634597e-05
1.12183425257e-05
1.6302378499e-05
6.23358406828e-06
1.28098251684e-05
3.49255262339e-06
1.08065799409e-05
2.00324530016e-06
9.60476937835e-06
1.20181096361e-06
8.85167883352e-06
7.53090340027e-07
8.36503083633e-06
4.86647724464e-07
8.04518641642e-06
3.19844614497e-07
7.83374241611e-06
2.11444144157e-07
7.69428239778e-06
1.39459944147e-07
7.60308068624e-06
9.12017532089e-08
7.54426581805e-06
5.88149319554e-08
7.50707749595e-06
3.71882248893e-08
7.48418953206e-06
2.28878956057e-08
7.47062405567e-06
1.35654911514e-08
7.46302156126e-06
7.60251885628e-09
7.45913884755e-06
3.88275730572e-09
7.45749916855e-06
1.63972036998e-09
7.45714609613e-06
3.53061792828e-10
7.45748345315e-06
-3.37353648559e-10
7.45813454437e-06
-6.5105898333e-10
7.45888655034e-06
-7.52008829348e-10
7.45962022708e-06
-7.33724721585e-10
7.46027667602e-06
-6.56500404801e-10
7.46083315759e-06
-5.56499609647e-10
7.4612873834e-06
-4.54209991581e-10
7.46164763373e-06
-3.60233332053e-10
7.46192681763e-06
-2.79178418216e-10
7.46213900063e-06
-2.12195161724e-10
7.46229752723e-06
-1.58559606476e-10
7.46241416295e-06
-1.16669245762e-10
7.46249876095e-06
-8.46162476402e-11
7.46255927584e-06
-6.05104966268e-11
7.46260196141e-06
-4.26676079619e-11
7.46263163488e-06
-2.96611368439e-11
7.46265196641e-06
-2.03308428968e-11
7.46266568544e-06
-1.37520085493e-11
7.46267479741e-06
-9.16897805701e-12
7.46268078493e-06
-6.0197855642e-12
7.46268469842e-06
-3.91067585771e-12
7.46268722184e-06
-2.52211921443e-12
7.46268878877e-06
-1.58095428031e-12
7.46268969534e-06
-9.00852287053e-13
7.46269022137e-06
-5.39078688977e-13
7.46269054668e-06
-3.39315057831e-13
7.46269079165e-06
-2.15160200151e-13
7.46269100598e-06
-1.69471539538e-13
7.46269120564e-06
-1.66504399688e-13
7.46269138468e-06
-2.03654142335e-13
7.4626915561e-06
-2.60106268369e-13
7.46269175638e-06
-3.14587783251e-13
7.46269202837e-06
-3.56408530984e-13
7.46269239104e-06
-3.77472790113e-13
7.46269282912e-06
-3.79405521704e-13
7.4626933034e-06
-3.78501534775e-13
7.46269377205e-06
-3.98896421993e-13
7.46269421329e-06
-4.43154069747e-13
7.46269464419e-06
-4.99767812076e-13
7.46269509179e-06
-5.5794272652e-13
7.46269559109e-06
-6.09771939815e-13
7.46269617543e-06
-6.44175467421e-13
7.46269683866e-06
-6.56399997005e-13
7.46269754304e-06
-6.51748195988e-13
7.46269826869e-06
-6.53961149108e-13
7.462699013e-06
-6.89134560472e-13
7.46269976737e-06
-7.50162802171e-13
7.46270053977e-06
-8.13507043092e-13
7.46270135278e-06
-8.65832332897e-13
7.46270222393e-06
-9.05823464521e-13
7.46270314505e-06
-9.33961576357e-13
7.46270408868e-06
-9.61770871978e-13
7.46270504201e-06
-1.00553633472e-12
7.46270602791e-06
-1.06441990817e-12
7.46270708423e-06
-1.12190211114e-12
7.46270822152e-06
-1.16570109671e-12
7.46270941729e-06
-1.19535449227e-12
7.46271064182e-06
-1.21565791309e-12
7.4627118771e-06
-1.23524953183e-12
7.46271312421e-06
-1.26938335347e-12
7.46271440445e-06
-1.33547694656e-12
7.46271575326e-06
-1.43345956839e-12
7.46271719225e-06
-1.52316964983e-12
7.46271872969e-06
-1.55978435323e-12
7.46272035833e-06
-1.56210718997e-12
7.46272202239e-06
-1.58420356618e-12
7.46272366487e-06
-1.6391946453e-12
7.46272530832e-06
-1.70596585364e-12
7.46272704197e-06
-1.78218946417e-12
7.4627289129e-06
-1.87704547586e-12
7.46273087523e-06
-1.96510910659e-12
7.46273289598e-06
-2.01804548637e-12
7.46273500879e-06
-2.05527942234e-12
7.462737221e-06
-2.09709574958e-12
7.46273951302e-06
-2.14229265233e-12
7.46274190611e-06
-2.23200140078e-12
7.46274440397e-06
-2.3976521709e-12
7.46274702288e-06
-2.58368748784e-12
7.46274983804e-06
-2.73826667955e-12
7.46275291539e-06
-2.91783052233e-12
7.46275622335e-06
-3.18011749901e-12
7.46275974309e-06
-3.45890141431e-12
7.46276364009e-06
-3.79417074908e-12
7.46276800581e-06
-4.25714944624e-12
7.46277292393e-06
-4.84148529425e-12
7.46277852527e-06
-5.52572649208e-12
7.46278498088e-06
-6.32670113821e-12
7.46279241913e-06
-7.26449930103e-12
7.462801011e-06
-8.39273698318e-12
7.46281109904e-06
-9.88212118634e-12
7.46282312095e-06
-1.18819677778e-11
7.46283752645e-06
-1.43747334664e-11
7.46285492014e-06
-1.7350114125e-11
7.46287609933e-06
-2.09765880386e-11
7.46290193599e-06
-2.55425475912e-11
7.46293335811e-06
-3.12100955709e-11
7.46297169637e-06
-3.81461333349e-11
7.46301874839e-06
-4.67906807645e-11
7.46307657823e-06
-5.76766326037e-11
7.46314765465e-06
-7.1187878938e-11
7.46323523042e-06
-8.77839300012e-11
7.4633433803e-06
-1.08267078356e-10
7.46347708071e-06
-1.33752469523e-10
7.46364303719e-06
-1.66014942605e-10
7.46385238659e-06
-2.09421537709e-10
7.46410742442e-06
-2.55121134691e-10
7.46442187632e-06
-3.14523768792e-10
7.46481092231e-06
-3.8898437727e-10
7.46529271409e-06
-4.81570044162e-10
7.46588936358e-06
-5.9653800597e-10
7.46662812703e-06
-7.38916822073e-10
7.46754310297e-06
-9.15130528366e-10
7.46867665172e-06
-1.13353850087e-09
7.47008107996e-06
-1.40443632913e-09
7.4718211182e-06
-1.74019287047e-09
7.47397736179e-06
-2.15624247178e-09
7.47665010945e-06
-2.67242282655e-09
7.47996375373e-06
-3.31343914623e-09
7.48407338679e-06
-4.10974410637e-09
7.48917256593e-06
-5.0994609965e-09
7.49550273492e-06
-6.33050927097e-09
7.50336629825e-06
-7.86368007019e-09
7.51314261168e-06
-9.77626194494e-09
7.52530940186e-06
-1.21666556601e-08
7.54047065209e-06
-1.51610418592e-08
7.55939345831e-06
-1.89226518353e-08
7.5830594663e-06
-2.36656919033e-08
7.61273325068e-06
-2.96737408273e-08
7.65006039439e-06
-3.73274580145e-08
7.69721057062e-06
-4.71502185939e-08
7.7570933325e-06
-5.98826213275e-08
7.83371638909e-06
-7.66226874023e-08
7.93285105872e-06
-9.91341942719e-08
8.06349418273e-06
-1.30642799643e-07
8.24163767033e-06
-1.7814333825e-07
8.50094106418e-06
-2.59303304393e-07
8.92437719562e-06
-4.23436112235e-07
9.74469754687e-06
-8.20320118064e-07
1.16764857555e-05
-1.93178870555e-06
-5.22762356283e-06
1.69041083617e-05
5.01388806544e-05
1.61068136069e-05
4.4159129704e-05
1.71980951062e-05
3.77598743266e-05
1.263284021e-05
3.26495148279e-05
8.60291184512e-06
2.89465819824e-05
5.7061773687e-06
2.63676031762e-05
3.78078990069e-06
2.45938854716e-05
2.52680836166e-06
2.33783984236e-05
1.70213459782e-06
2.25473239483e-05
1.15091909314e-06
2.19811571652e-05
7.77611220622e-07
2.15978047946e-05
5.2281232017e-07
2.13405417527e-05
3.48464624315e-07
2.11699443252e-05
2.29412343558e-07
2.10585366548e-05
1.48595890737e-07
2.09871856053e-05
9.42389078162e-08
2.09426221468e-05
5.81289859533e-08
2.09157076733e-05
3.45170477735e-08
2.09002079007e-05
1.93825805415e-08
2.08919204552e-05
9.92723457622e-09
2.08880553112e-05
4.21820854407e-09
2.08867856197e-05
9.32285434216e-10
2.08869506115e-05
-8.16085120189e-10
2.08878289189e-05
-1.63034335848e-09
2.08889874049e-05
-1.89225495205e-09
2.08901807971e-05
-1.84993611781e-09
2.0891281354e-05
-1.65706464006e-09
2.08922328568e-05
-1.4056752463e-09
2.0893020558e-05
-1.14790812875e-09
2.08936521497e-05
-9.1078416706e-10
2.08941460117e-05
-7.06101660446e-10
2.08945242271e-05
-5.36840732953e-10
2.08948087446e-05
-4.01227800112e-10
2.08950193931e-05
-2.95249025508e-10
2.089517306e-05
-2.14130555995e-10
2.0895283584e-05
-1.53155435131e-10
2.08953619723e-05
-1.08060711392e-10
2.08954168049e-05
-7.52193580721e-11
2.08954546398e-05
-5.16552941387e-11
2.08954803623e-05
-3.49668678092e-11
2.08954975836e-05
-2.32680869119e-11
2.08955089207e-05
-1.51670434998e-11
2.08955161351e-05
-9.6662829925e-12
2.08955205653e-05
-6.00271206644e-12
2.08955232603e-05
-3.6164602436e-12
2.0895524806e-05
-2.11333158934e-12
2.08955256185e-05
-1.17704300383e-12
2.08955259991e-05
-5.95725155926e-13
2.08955262432e-05
-3.96091744965e-13
2.08955263806e-05
-3.1977196886e-13
2.08955264503e-05
-3.36942241904e-13
2.08955265021e-05
-4.04315241798e-13
2.08955265742e-05
-4.76669231788e-13
2.08955267129e-05
-5.34395541007e-13
2.08955269407e-05
-5.76173407207e-13
2.08955272347e-05
-6.1223266634e-13
2.08955275571e-05
-6.58751233072e-13
2.08955278707e-05
-7.29614148412e-13
2.08955281612e-05
-8.21515941681e-13
2.08955284494e-05
-9.16569916075e-13
2.0895528759e-05
-1.00342641531e-12
2.08955291204e-05
-1.06569244047e-12
2.08955295579e-05
-1.09387182074e-12
2.08955300662e-05
-1.10923538599e-12
2.08955306029e-05
-1.13754673737e-12
2.0895531144e-05
-1.18244849754e-12
2.08955317034e-05
-1.24499455231e-12
2.08955322851e-05
-1.33216670865e-12
2.08955328906e-05
-1.44617562325e-12
2.08955335289e-05
-1.55514930863e-12
2.08955342122e-05
-1.63587802649e-12
2.08955349297e-05
-1.69297440728e-12
2.08955356555e-05
-1.75144895394e-12
2.08955363814e-05
-1.829071145e-12
2.08955371376e-05
-1.91403142519e-12
2.08955379661e-05
-1.98817947449e-12
2.0895538873e-05
-2.05474438261e-12
2.08955398236e-05
-2.12679243053e-12
2.08955407856e-05
-2.20523473503e-12
2.08955417535e-05
-2.28409565832e-12
2.08955427349e-05
-2.36778211232e-12
2.08955437458e-05
-2.4679301901e-12
2.08955448343e-05
-2.58656203267e-12
2.0895546043e-05
-2.70349592669e-12
2.08955473603e-05
-2.79000375128e-12
2.08955487449e-05
-2.85927128723e-12
2.08955501528e-05
-2.96581762786e-12
2.08955515659e-05
-3.12646297329e-12
2.0895553016e-05
-3.29118724308e-12
2.08955545775e-05
-3.41407126967e-12
2.08955563073e-05
-3.52271429119e-12
2.08955581864e-05
-3.6678813755e-12
2.08955601843e-05
-3.84476846425e-12
2.0895562337e-05
-4.03446620755e-12
2.08955646682e-05
-4.24981263036e-12
2.08955671522e-05
-4.49839282063e-12
2.08955698427e-05
-4.80790329358e-12
2.08955728486e-05
-5.24013429333e-12
2.08955762409e-05
-5.79123987551e-12
2.08955800804e-05
-6.40138748639e-12
2.08955844975e-05
-7.10576805694e-12
2.08955895397e-05
-7.99496092935e-12
2.089559524e-05
-9.09043045247e-12
2.08956018499e-05
-1.03639563403e-11
2.08956096603e-05
-1.19255107273e-11
2.0895618941e-05
-1.3868479154e-11
2.08956300043e-05
-1.62386026899e-11
2.08956432488e-05
-1.91352629161e-11
2.08956590656e-05
-2.271012438e-11
2.08956778762e-05
-2.70459479497e-11
2.08957001491e-05
-3.21164925238e-11
2.08957270162e-05
-3.86097112487e-11
2.08957609271e-05
-4.80121623088e-11
2.0895802796e-05
-5.89299271422e-11
2.08958543854e-05
-7.22199700417e-11
2.08959180265e-05
-8.86795302867e-11
2.08959964355e-05
-1.09195630656e-10
2.08960930155e-05
-1.34620363835e-10
2.08962122087e-05
-1.66047016608e-10
2.08963595199e-05
-2.05003643924e-10
2.08965416077e-05
-2.53302780135e-10
2.08967666963e-05
-3.13016476949e-10
2.08970450009e-05
-3.8676159327e-10
2.089738899e-05
-4.7790600463e-10
2.08978135735e-05
-5.90726154512e-10
2.08983350148e-05
-7.30890621857e-10
2.08989856329e-05
-9.05611046681e-10
2.08997938361e-05
-1.12262281781e-09
2.09007961474e-05
-1.39133695122e-09
2.0902038526e-05
-1.7239989735e-09
2.09035780858e-05
-2.13608531981e-09
2.09054855714e-05
-2.64653425198e-09
2.09078488405e-05
-3.27869137703e-09
2.09107769803e-05
-4.0618005104e-09
2.09144052923e-05
-5.03243116583e-09
2.09189013246e-05
-6.23582324398e-09
2.09244729888e-05
-7.7279438758e-09
2.09313790174e-05
-9.57875563016e-09
2.09399410222e-05
-1.18757679772e-08
2.09505594207e-05
-1.47282572391e-08
2.09637335415e-05
-1.82732896287e-08
2.09800864173e-05
-2.2683148787e-08
2.10003979238e-05
-2.81752113611e-08
2.10256466095e-05
-3.50251670572e-08
2.10570644397e-05
-4.35845386478e-08
2.10962087681e-05
-5.43050389861e-08
2.11450577616e-05
-6.77717299378e-08
2.12061433484e-05
-8.47510994542e-08
2.12827327575e-05
-1.06262045167e-07
2.13790891228e-05
-1.3368266054e-07
2.15008625447e-05
-1.6892266171e-07
2.16556983594e-05
-2.14717830146e-07
2.18542505457e-05
-2.75174466696e-07
2.21119841683e-05
-3.56867526251e-07
2.24525967732e-05
-4.71255104099e-07
2.29148461895e-05
-6.40392273209e-07
2.35664474457e-05
-9.1090373814e-07
2.45304363024e-05
-1.38742445918e-06
2.60214873674e-05
-2.31137013933e-06
2.83335294336e-05
-4.24382887886e-06
-8.3114375776e-06
3.14173433959e-05
5.35844261769e-05
1.25223865307e-05
5.29166007928e-05
1.78659204486e-05
4.96393017593e-05
1.5910139731e-05
4.58382175049e-05
1.24039964126e-05
4.2442874631e-05
9.10151967115e-06
3.97331592736e-05
6.49050509383e-06
3.76912455663e-05
4.56872241423e-06
3.62011672679e-05
3.19221296522e-06
3.51355937912e-05
2.21649245352e-06
3.4384844835e-05
1.52836031501e-06
3.38626593333e-05
1.04499790486e-06
3.35040068956e-05
7.07116931734e-07
3.32609628593e-05
4.7245628987e-07
3.30987208809e-05
3.1083789185e-07
3.29922909053e-05
2.00668899143e-07
3.29239197888e-05
1.26500158863e-07
3.28811299223e-05
7.73069424392e-08
3.28552513228e-05
4.52611568492e-08
3.28403348375e-05
2.48437362233e-08
3.28323549328e-05
1.21981433033e-08
3.28286290408e-05
4.65817049814e-09
3.28274051005e-05
4.07828964686e-10
3.28275645187e-05
-1.78979167341e-09
3.28284105616e-05
-2.7383173645e-09
3.28295266588e-05
-2.96603831395e-09
3.28306763246e-05
-2.80673587107e-09
3.28317364829e-05
-2.46582816352e-09
3.28326529807e-05
-2.06440502787e-09
3.28334116457e-05
-1.6694693829e-09
3.28340199272e-05
-1.31441225546e-09
3.2834495536e-05
-1.01248612981e-09
3.28348597733e-05
-7.6548421254e-10
3.28351337721e-05
-5.69234732687e-10
3.28353365962e-05
-4.16930667504e-10
3.28354845074e-05
-3.01053293442e-10
3.28355908196e-05
-2.14414378685e-10
3.28356661577e-05
-1.50640848736e-10
3.28357188234e-05
-1.04381476271e-10
3.28357551187e-05
-7.12914043481e-11
3.28357797524e-05
-4.7907656924e-11
3.28357962141e-05
-3.16039702879e-11
3.28358070281e-05
-2.04235127785e-11
3.283581393e-05
-1.28952374327e-11
3.28358182218e-05
-7.92168049357e-12
3.28358208266e-05
-4.72680321023e-12
3.28358223767e-05
-2.74523194672e-12
3.28358233113e-05
-1.54309023808e-12
3.2835823763e-05
-8.77214917074e-13
3.28358239005e-05
-5.23599539619e-13
3.2835823905e-05
-4.28828532039e-13
3.2835823863e-05
-4.36056711965e-13
3.28358238325e-05
-4.82271846274e-13
3.28358238624e-05
-5.4503059206e-13
3.28358239639e-05
-6.15263035535e-13
3.2835824119e-05
-7.02065728283e-13
3.28358242975e-05
-8.14744010171e-13
3.28358244627e-05
-9.29501319688e-13
3.283582461e-05
-1.04881697466e-12
3.2835824761e-05
-1.16830157668e-12
3.28358249436e-05
-1.26470155446e-12
3.28358251802e-05
-1.33100552652e-12
3.28358254756e-05
-1.36763984438e-12
3.28358258151e-05
-1.40240454135e-12
3.28358261679e-05
-1.46567951939e-12
3.28358265157e-05
-1.55471113099e-12
3.28358268734e-05
-1.65270376439e-12
3.28358272374e-05
-1.74336410313e-12
3.28358276364e-05
-1.87940216644e-12
3.28358280771e-05
-2.00387064291e-12
3.28358285506e-05
-2.09941736717e-12
3.28358290325e-05
-2.17899146203e-12
3.28358295021e-05
-2.26283489256e-12
3.28358299708e-05
-2.36279934805e-12
3.2835830472e-05
-2.47221283384e-12
3.2835831035e-05
-2.57634199453e-12
3.28358316619e-05
-2.67095819046e-12
3.28358323246e-05
-2.76762003603e-12
3.28358329908e-05
-2.88096686243e-12
3.28358336485e-05
-3.01710133601e-12
3.28358343057e-05
-3.16882487273e-12
3.28358349873e-05
-3.31612094719e-12
3.28358357524e-05
-3.44399845024e-12
3.28358366465e-05
-3.56090329787e-12
3.28358376379e-05
-3.68403622163e-12
3.28358386643e-05
-3.8274219247e-12
3.2835839699e-05
-4.01077853948e-12
3.28358407636e-05
-4.23939711894e-12
3.28358419002e-05
-4.4798957515e-12
3.28358431507e-05
-4.69618081388e-12
3.28358445614e-05
-4.90764145636e-12
3.28358461456e-05
-5.15976240878e-12
3.28358478845e-05
-5.45579330605e-12
3.28358498056e-05
-5.79275342333e-12
3.28358519464e-05
-6.2185834277e-12
3.28358542844e-05
-6.76749701305e-12
3.2835856882e-05
-7.42639289968e-12
3.28358598942e-05
-8.21066075866e-12
3.28358634103e-05
-9.15061044182e-12
3.2835867394e-05
-1.02077198012e-11
3.28358719809e-05
-1.14942614494e-11
3.28358775843e-05
-1.33335836252e-11
3.28358842344e-05
-1.55200159228e-11
3.28358921715e-05
-1.81630715374e-11
3.28359017767e-05
-2.13798507556e-11
3.28359134889e-05
-2.53431344973e-11
3.28359277659e-05
-3.01995213537e-11
3.28359451965e-05
-3.61748875221e-11
3.28359665112e-05
-4.36475786499e-11
3.28359926437e-05
-5.29925579971e-11
3.28360250766e-05
-6.45604992596e-11
3.2836065321e-05
-7.88392924603e-11
3.28361140577e-05
-9.65371227283e-11
3.28361738857e-05
-1.18461840505e-10
3.28362474791e-05
-1.45561666173e-10
3.28363382449e-05
-1.79116019146e-10
3.28364502838e-05
-2.20828125164e-10
3.2836588476e-05
-2.72607623883e-10
3.28367590268e-05
-3.36665496304e-10
3.28369698032e-05
-4.15879759728e-10
3.28372304247e-05
-5.13927998909e-10
3.28375526928e-05
-6.35275330437e-10
3.28379513035e-05
-7.85395160547e-10
3.28384445325e-05
-9.71185536467e-10
3.28390550419e-05
-1.20134563854e-09
3.28398108073e-05
-1.48677537386e-09
3.28407459199e-05
-1.84066881201e-09
3.284190332e-05
-2.27979569993e-09
3.28433361584e-05
-2.82411731579e-09
3.28451103197e-05
-3.49832811259e-09
3.28473075661e-05
-4.33340590096e-09
3.2850028946e-05
-5.36786545435e-09
3.28533995282e-05
-6.64936777343e-09
3.2857574512e-05
-8.23706214114e-09
3.28627466604e-05
-1.02046031773e-08
3.2869154851e-05
-1.26436719611e-08
3.28770951221e-05
-1.56680617538e-08
3.2886935601e-05
-1.94193857342e-08
3.28991339471e-05
-2.40744370552e-08
3.29142594423e-05
-2.98541226072e-08
3.29330214711e-05
-3.70353317706e-08
3.29563045368e-05
-4.59660546336e-08
3.29852143476e-05
-5.70848795257e-08
3.30211363514e-05
-7.09470458654e-08
3.30658114666e-05
-8.82594844891e-08
3.31214359049e-05
-1.09928989043e-07
3.31907919777e-05
-1.37127823756e-07
3.32774280296e-05
-1.71387500693e-07
3.3385904025e-05
-2.14737799144e-07
3.35221373839e-05
-2.69915619054e-07
3.36939111083e-05
-3.40695861649e-07
3.39116380532e-05
-4.32444303883e-07
3.41895616229e-05
-5.53097831377e-07
3.45476949629e-05
-7.15000886557e-07
3.50149805176e-05
-9.38540780573e-07
3.56342203889e-05
-1.25963226024e-06
3.64686147764e-05
-1.74529776741e-06
3.76057966986e-05
-2.52460676551e-06
3.91380161864e-05
-3.8435904801e-06
4.10403132575e-05
-6.14612595278e-06
-1.00655186448e-05
4.27943939354e-05
5.35705200846e-05
8.95186666589e-06
5.55863056047e-05
1.58501343689e-05
5.52410588201e-05
1.62553864114e-05
5.35976161891e-05
1.40474395672e-05
5.15429060765e-05
1.11562295695e-05
4.9581940436e-05
8.45147045982e-06
4.79262513799e-05
6.22441166543e-06
4.6620040196e-05
4.49842438414e-06
4.56322342102e-05
3.20429832363e-06
4.49066880503e-05
2.25390643533e-06
4.43854427624e-05
1.56624324702e-06
4.40178334088e-05
1.07472624626e-06
4.37629128844e-05
7.27376751558e-07
4.35890454479e-05
4.84705372219e-07
4.34725022325e-05
3.17212130972e-07
4.33958692349e-05
2.03133205053e-07
4.3346591232e-05
1.26584982298e-07
4.33157570804e-05
7.60952536109e-08
4.32971356148e-05
4.34651453024e-08
4.32864340396e-05
2.28997167449e-08
4.32807407391e-05
1.03514870784e-08
4.32781179917e-05
3.03058456466e-09
4.32772912918e-05
-9.63093923643e-10
4.32774557798e-05
-2.90280366834e-09
4.32781071785e-05
-3.61742756153e-09
4.32789451893e-05
-3.64475582184e-09
4.3279800173e-05
-3.32083637615e-09
4.32805845222e-05
-2.8487785504e-09
4.32812603268e-05
-2.34530111243e-09
4.32818184256e-05
-1.87253191559e-09
4.32822650812e-05
-1.45915340532e-09
4.32826138071e-05
-1.11420656822e-09
4.32828805348e-05
-8.35945559067e-10
4.32830809277e-05
-6.17311685336e-10
4.32832290764e-05
-4.4921305394e-10
4.32833369573e-05
-3.22354729628e-10
4.32834143842e-05
-2.28165932623e-10
4.3283469208e-05
-1.59267555866e-10
4.32835075224e-05
-1.09583176066e-10
4.32835339028e-05
-7.42420601484e-11
4.3283551793e-05
-4.94350292958e-11
4.32835637235e-05
-3.22923455291e-11
4.32835714679e-05
-2.06396009937e-11
4.32835763601e-05
-1.28498535064e-11
4.32835793578e-05
-7.76923662611e-12
4.32835811123e-05
-4.54534702222e-12
4.3283582094e-05
-2.57767931099e-12
4.32835826213e-05
-1.46196323308e-12
4.32835829216e-05
-8.85289611755e-13
4.32835830212e-05
-6.01512309035e-13
4.3283582998e-05
-4.8801697841e-13
4.3283582933e-05
-4.51390598309e-13
4.32835828789e-05
-4.51677306523e-13
4.32835828552e-05
-5.00668504722e-13
4.32835828519e-05
-6.04057938006e-13
4.32835828551e-05
-7.47080892224e-13
4.32835828504e-05
-8.99787966243e-13
4.32835828241e-05
-1.0600022126e-12
4.32835827854e-05
-1.21035829565e-12
4.32835827714e-05
-1.32907435524e-12
4.32835827928e-05
-1.41120827827e-12
4.32835828337e-05
-1.4626322392e-12
4.32835828824e-05
-1.51006181453e-12
4.32835829331e-05
-1.58347180519e-12
4.3283582977e-05
-1.68260386075e-12
4.32835830258e-05
-1.78801776376e-12
4.32835831176e-05
-1.89835516268e-12
4.32835832296e-05
-2.01680047686e-12
4.32835833637e-05
-2.12555263683e-12
4.32835835076e-05
-2.21832783082e-12
4.32835836295e-05
-2.30521135206e-12
4.3283583713e-05
-2.39669239788e-12
4.3283583783e-05
-2.49950983957e-12
4.32835838777e-05
-2.61573655539e-12
4.32835840195e-05
-2.73702077782e-12
4.32835842038e-05
-2.85404721448e-12
4.32835844062e-05
-2.97621600018e-12
4.32835845989e-05
-3.12291442791e-12
4.32835847705e-05
-3.29888378571e-12
4.32835849353e-05
-3.48541604302e-12
4.32835851219e-05
-3.64800139345e-12
4.32835853783e-05
-3.76826729189e-12
4.3283585743e-05
-3.87797201372e-12
4.3283586188e-05
-4.02705995277e-12
4.32835866566e-05
-4.23201045446e-12
4.32835871374e-05
-4.48211911691e-12
4.32835876699e-05
-4.76011227057e-12
4.32835882917e-05
-5.05649767429e-12
4.32835890164e-05
-5.37210491417e-12
4.32835898846e-05
-5.71724178374e-12
4.3283590942e-05
-6.10913119482e-12
4.32835921826e-05
-6.56528026465e-12
4.32835936131e-05
-7.10842713842e-12
4.32835952854e-05
-7.79202782215e-12
4.32835972212e-05
-8.67125457278e-12
4.32835994885e-05
-9.73439982845e-12
4.32836022693e-05
-1.09771972654e-11
4.32836057537e-05
-1.24671270734e-11
4.32836100504e-05
-1.42829395141e-11
4.32836152629e-05
-1.64868134035e-11
4.32836213846e-05
-1.91976959464e-11
4.32836287409e-05
-2.2601579686e-11
4.3283637616e-05
-2.68148078955e-11
4.32836484389e-05
-3.1976535757e-11
4.3283661743e-05
-3.8326835255e-11
4.32836780284e-05
-4.61507787523e-11
4.32836979135e-05
-5.5803268658e-11
4.32837222565e-05
-6.78005031275e-11
4.3283752097e-05
-8.27430104346e-11
4.32837887518e-05
-1.01221516332e-10
4.32838339633e-05
-1.24034547128e-10
4.32838899309e-05
-1.52312371422e-10
4.32839591085e-05
-1.87330694976e-10
4.32840444311e-05
-2.30688361269e-10
4.32841497593e-05
-2.84330149326e-10
4.3284279966e-05
-3.50804951273e-10
4.32844408631e-05
-4.33248515427e-10
4.3284639636e-05
-5.35343316646e-10
4.32848853823e-05
-6.61629202311e-10
4.32851893792e-05
-8.17884120032e-10
4.32855654621e-05
-1.01128306635e-09
4.32860307735e-05
-1.25065524709e-09
4.32866066436e-05
-1.54701800648e-09
4.32873194334e-05
-1.91415227619e-09
4.32882016759e-05
-2.3691357852e-09
4.32892938474e-05
-2.93289726753e-09
4.32906459266e-05
-3.63172195898e-09
4.32923196402e-05
-4.49774762323e-09
4.32943915883e-05
-5.57046623806e-09
4.32969570208e-05
-6.89898100991e-09
4.33001338017e-05
-8.54454713374e-09
4.33040677161e-05
-1.0583208546e-08
4.33089394631e-05
-1.31090638334e-08
4.33149734062e-05
-1.62388776247e-08
4.3322447786e-05
-2.01180588708e-08
4.33317072491e-05
-2.49274466265e-08
4.33431798829e-05
-3.08919836521e-08
4.33573976072e-05
-3.82921305408e-08
4.33750213412e-05
-4.74779671341e-08
4.33968736411e-05
-5.88876609239e-08
4.34239788062e-05
-7.30712249083e-08
4.34576148341e-05
-9.07208489711e-08
4.34993790961e-05
-1.12711102913e-07
4.35512723315e-05
-1.40152621486e-07
4.36158091381e-05
-1.74465269082e-07
4.36961597665e-05
-2.17477852625e-07
4.37963405152e-05
-2.71568055815e-07
4.39214696413e-05
-3.39866685525e-07
4.40781146472e-05
-4.26560554117e-07
4.42747785209e-05
-5.37359630531e-07
4.45225838083e-05
-6.80249470135e-07
4.48362400666e-05
-8.66754096838e-07
4.52353819497e-05
-1.1141428323e-06
4.57462482383e-05
-1.44940719445e-06
4.64031428214e-05
-1.91652703869e-06
4.72473754314e-05
-2.58952997591e-06
4.83167054595e-05
-3.59393608552e-06
4.9607362328e-05
-5.13424691042e-06
5.09690621738e-05
-7.50782502776e-06
-1.10097903844e-05
5.19133339308e-05
5.27606086919e-05
6.19125849578e-06
5.57402407768e-05
1.28705020205e-05
5.73124117642e-05
1.46832148438e-05
5.76111980977e-05
1.37486536974e-05
5.71338687984e-05
1.16335589892e-05
5.63199842002e-05
9.26535486865e-06
5.54496451112e-05
7.09475073949e-06
5.46637032684e-05
5.28436651165e-06
5.40144134024e-05
3.85358816152e-06
5.35068427793e-05
2.76147689907e-06
5.31248783499e-05
1.94820766653e-06
5.28455243861e-05
1.35408024647e-06
5.26458882115e-05
9.270129328e-07
5.25060756442e-05
6.24518017428e-07
5.24099980091e-05
4.132897707e-07
5.23452164664e-05
2.67914719162e-07
5.23024115154e-05
1.69389933327e-07
5.22747666093e-05
1.03740127116e-07
5.22573944117e-05
6.08372933339e-08
5.22468523785e-05
3.3441745829e-08
5.22407561592e-05
1.64477321451e-08
5.22374831734e-05
6.303593228e-09
5.22359419294e-05
5.78149938885e-10
5.22354266041e-05
-2.38749793587e-09
5.22354785291e-05
-3.66935971722e-09
5.22358133939e-05
-3.97962587603e-09
5.22362606964e-05
-3.76814766394e-09
5.22367235726e-05
-3.31165767256e-09
5.22371514235e-05
-2.77316760317e-09
5.22375218443e-05
-2.24296511851e-09
5.22378288004e-05
-1.76610334064e-09
5.22380751089e-05
-1.36050002945e-09
5.22382678198e-05
-1.02864286213e-09
5.22384154534e-05
-7.64962515864e-10
5.22385265143e-05
-5.6032282604e-10
5.22386087146e-05
-4.04617341972e-10
5.22386686289e-05
-2.88163384303e-10
5.22387116993e-05
-2.02387000414e-10
5.22387422761e-05
-1.4012663494e-10
5.223876368e-05
-9.55739619788e-11
5.22387784312e-05
-6.41301106959e-11
5.22387884523e-05
-4.22626613019e-11
5.22387951047e-05
-2.72935940963e-11
5.22387994077e-05
-1.72059538169e-11
5.22388021427e-05
-1.05571100556e-11
5.22388038469e-05
-6.29979888032e-12
5.22388048807e-05
-3.65567237301e-12
5.22388054679e-05
-2.06904150007e-12
5.22388057327e-05
-1.154778457e-12
5.2238805779e-05
-6.66558569224e-13
5.22388056853e-05
-4.48615297849e-13
5.22388055353e-05
-3.77494598983e-13
5.22388054034e-05
-3.80681711521e-13
5.22388053096e-05
-4.38742016873e-13
5.22388052343e-05
-5.41542025284e-13
5.22388051575e-05
-6.70138317461e-13
5.22388050677e-05
-8.11606591874e-13
5.22388049554e-05
-9.65738785369e-13
5.22388048337e-05
-1.11520537327e-12
5.22388047318e-05
-1.23726699051e-12
5.2238804657e-05
-1.32853242585e-12
5.22388045849e-05
-1.39858392462e-12
5.22388045068e-05
-1.46092061173e-12
5.22388044297e-05
-1.53525528042e-12
5.22388043448e-05
-1.62895785669e-12
5.22388042475e-05
-1.73030082935e-12
5.22388041569e-05
-1.82982268767e-12
5.22388040869e-05
-1.92849986747e-12
5.22388040346e-05
-2.02220484436e-12
5.22388039754e-05
-2.11555630205e-12
5.22388038821e-05
-2.2168370301e-12
5.22388037526e-05
-2.32757393335e-12
5.22388036155e-05
-2.4444526437e-12
5.22388035e-05
-2.56697141483e-12
5.22388034137e-05
-2.69568172586e-12
5.22388033481e-05
-2.83189921668e-12
5.22388032903e-05
-2.98044064657e-12
5.22388032214e-05
-3.14363063374e-12
5.2238803128e-05
-3.31200151535e-12
5.22388030288e-05
-3.46942029701e-12
5.22388029573e-05
-3.60386517453e-12
5.22388029407e-05
-3.71889540699e-12
5.22388029869e-05
-3.84772450555e-12
5.22388030628e-05
-4.03265758566e-12
5.22388031292e-05
-4.28158454641e-12
5.22388031968e-05
-4.56903032869e-12
5.22388033232e-05
-4.88018281837e-12
5.22388035522e-05
-5.23444409123e-12
5.22388038765e-05
-5.64884911652e-12
5.22388043059e-05
-6.11333578634e-12
5.22388049018e-05
-6.63893831462e-12
5.22388056751e-05
-7.27372804485e-12
5.22388065886e-05
-8.04582862061e-12
5.22388076958e-05
-8.97887798188e-12
5.22388090895e-05
-1.01238894006e-11
5.22388108406e-05
-1.14979779271e-11
5.22388130666e-05
-1.31157807201e-11
5.22388159288e-05
-1.50788261664e-11
5.22388194849e-05
-1.75302884312e-11
5.22388238356e-05
-2.05749266397e-11
5.22388292345e-05
-2.436623028e-11
5.22388359532e-05
-2.90774998926e-11
5.22388442925e-05
-3.49185496684e-11
5.22388546753e-05
-4.20999396096e-11
5.22388676567e-05
-5.09411897438e-11
5.22388837617e-05
-6.18888429468e-11
5.22389035959e-05
-7.54526261008e-11
5.22389280825e-05
-9.2239074188e-11
5.22389584086e-05
-1.13025527735e-10
5.22389959795e-05
-1.38714438324e-10
5.22390424666e-05
-1.70404321369e-10
5.22390999558e-05
-2.09576971767e-10
5.22391710836e-05
-2.58125197658e-10
5.22392589831e-05
-3.18338477131e-10
5.22393675915e-05
-3.92882339557e-10
5.22395019678e-05
-4.85122422479e-10
5.223966826e-05
-5.99367736313e-10
5.22398739507e-05
-7.40861228441e-10
5.22401283993e-05
-9.15971716829e-10
5.22404433118e-05
-1.13269020849e-09
5.22408331011e-05
-1.40095059373e-09
5.22413155319e-05
-1.73302176554e-09
5.22419127038e-05
-2.14416642661e-09
5.22426519957e-05
-2.65341517217e-09
5.22435671494e-05
-3.28431829018e-09
5.22447000304e-05
-4.06588764323e-09
5.22461025304e-05
-5.03421884291e-09
5.22478387937e-05
-6.23390733035e-09
5.22499881841e-05
-7.71986943719e-09
5.22526492262e-05
-9.56013219424e-09
5.22559440049e-05
-1.18394039903e-08
5.22600236985e-05
-1.46629115352e-08
5.2265075486e-05
-1.81609497094e-08
5.22713313906e-05
-2.24950224428e-08
5.22790791929e-05
-2.78659796227e-08
5.22886752556e-05
-3.45236190534e-08
5.23005616675e-05
-4.2778543337e-08
5.23152872452e-05
-5.30176402044e-08
5.23335328207e-05
-6.57234231768e-08
5.23561441462e-05
-8.14988779716e-08
5.23841723614e-05
-1.01099400985e-07
5.24189253948e-05
-1.2547371169e-07
5.24620323284e-05
-1.5581759564e-07
5.251552425e-05
-1.93644509287e-07
5.25819397722e-05
-2.40880688809e-07
5.26644567834e-05
-2.9999439659e-07
5.27670626231e-05
-3.74173678256e-07
5.28947756299e-05
-4.67579551179e-07
5.30539284067e-05
-5.8571335294e-07
5.32525334411e-05
-7.35964731077e-07
5.35007395454e-05
-9.28455611749e-07
5.38113626801e-05
-1.17737733384e-06
5.42003831093e-05
-1.50316333274e-06