/*--------------------------------*- C++ -*----------------------------------*\
| =========                 |                                                 |
| \\      /  F ield         | OpenFOAM: The Open Source CFD Toolbox           |
|  \\    /   O peration     | Version:  2106                                  |
|   \\  /    A nd           | Website:  www.openfoam.com                      |
|    \\/     M anipulation  |                                                 |
\*---------------------------------------------------------------------------*/
FoamFile
{
    version     2.0;
    format      ascii;
    arch        "LSB;label=32;scalar=64";
    class       volVectorField;
    location    "0.125";
    object      U;
}
// * * * * * * * * * * * * * * * * * * * * * * * * * * * * * * * * * * * * * //

dimensions      [0 1 -1 0 0 0 0];

internalField   nonuniform List<vector> 
11200
(
(0.662462403421 0.150569443508 0)
(0.558948672645 0.103243389086 0)
(0.383850737774 0.0513512247979 0)
(0.283747596869 0.0248708561417 0)
(0.23207527311 0.0124170466808 0)
(0.20190859077 0.00662281912276 0)
(0.183197937114 0.00380291773019 0)
(0.171276491554 0.002315874447 0)
(0.163510306772 0.00146451179201 0)
(0.158388766864 0.000944898027117 0)
(0.15500662586 0.000615182094136 0)
(0.152786672219 0.000402237505749 0)
(0.151346530966 0.000264233119376 0)
(0.150428315294 0.000175246729962 0)
(0.149856750575 0.000118351046686 0)
(0.149512613027 8.21415737447e-05 0)
(0.149315146146 5.88346886256e-05 0)
(0.149209909581 4.3266204145e-05 0)
(0.149160200715 3.28670018185e-05 0)
(0.149143152449 2.8119895322e-05 0)
(0.149145559499 2.7608935326e-05 0)
(0.149158106463 2.98625383519e-05 0)
(0.149174009064 3.30348588325e-05 0)
(0.149189866297 3.59501063984e-05 0)
(0.149204405155 3.85887162764e-05 0)
(0.149217015783 4.10344075252e-05 0)
(0.149227521972 4.33196997373e-05 0)
(0.149236022252 4.54741242798e-05 0)
(0.149242745516 4.7534823695e-05 0)
(0.149247966581 4.95449567921e-05 0)
(0.149251962975 5.15588685754e-05 0)
(0.149254997299 5.36571839301e-05 0)
(0.149257271507 5.5935104705e-05 0)
(0.14925895081 5.83082849922e-05 0)
(0.149260177198 6.06842855221e-05 0)
(0.149261042305 6.30286909491e-05 0)
(0.149261625399 6.53413734856e-05 0)
(0.149262013289 6.76292979914e-05 0)
(0.149262271428 6.99076981234e-05 0)
(0.149262433454 7.21848161061e-05 0)
(0.149262521989 7.44627934361e-05 0)
(0.149262556242 7.67422083341e-05 0)
(0.149262551765 7.90227593527e-05 0)
(0.149262521009 8.13035391464e-05 0)
(0.149262473582 8.35831423651e-05 0)
(0.14926241663 8.58595608134e-05 0)
(0.149262355466 8.81303783731e-05 0)
(0.149262293904 9.03930243397e-05 0)
(0.149262234656 9.26448297489e-05 0)
(0.149262180923 9.48827621673e-05 0)
(0.14926213789 9.71038396517e-05 0)
(0.149262113697 9.93049388855e-05 0)
(0.149262120825 0.000101482808553 0)
(0.14926217759 0.000103634076925 0)
(0.149262309942 0.000105754909154 0)
(0.14926255422 0.00010784018249 0)
(0.149262961507 0.000109882787513 0)
(0.149263603489 0.000111873613245 0)
(0.149264585121 0.000113798751889 0)
(0.149266062283 0.000115634378346 0)
(0.149268274011 0.000117329411038 0)
(0.149271622596 0.000118797865968 0)
(0.149276596852 0.000120063614104 0)
(0.149283842784 0.000121310313894 0)
(0.149294387282 0.000122987934112 0)
(0.149309756077 0.000125344531906 0)
(0.149332342495 0.000128133441226 0)
(0.149365873533 0.000131113261121 0)
(0.14941599244 0.000134059830697 0)
(0.149490999984 0.000136863604667 0)
(0.149602931875 0.000140856189579 0)
(0.14977493948 0.000151987033493 0)
(0.150045081019 0.000172948865809 0)
(0.150476821207 0.000203532462821 0)
(0.151206695559 0.000233990874674 0)
(0.152514142194 0.000193426154535 0)
(0.155058731694 -0.000218537210942 0)
(0.162444766986 -0.002133687102 0)
(0.187945695206 -0.0109241873296 0)
(0.205376190498 -0.0504607618606 0)
(0.9654082537 0.289214710434 0)
(0.96196285685 0.252656043513 0)
(0.823574387293 0.159021445425 0)
(0.698139361858 0.0959957364774 0)
(0.610225454164 0.0582481215865 0)
(0.54897147879 0.0362148632032 0)
(0.506588871969 0.023161297611 0)
(0.477567247784 0.01513752947 0)
(0.457745467485 0.0100177691555 0)
(0.444228437201 0.00665815204629 0)
(0.435053283942 0.00441555987887 0)
(0.428873126903 0.00290685686498 0)
(0.424754256647 0.00189103051955 0)
(0.42204678539 0.00120999147358 0)
(0.42029807092 0.000757076013179 0)
(0.419193639888 0.000459127044094 0)
(0.418516278742 0.000265676619249 0)
(0.418117451704 0.000142165949328 0)
(0.417897254065 6.58251955703e-05 0)
(0.417788698891 2.27873377974e-05 0)
(0.417747943898 1.07348750337e-06 0)
(0.417745363224 -1.06149301618e-05 0)
(0.417760644999 -1.42124004755e-05 0)
(0.417783384341 -1.38048793761e-05 0)
(0.417808523476 -1.14072135899e-05 0)
(0.417832767262 -8.08577950744e-06 0)
(0.417854399662 -4.47610996652e-06 0)
(0.417872800863 -9.480928948e-07 0)
(0.41788795293 2.29822162455e-06 0)
(0.41790014817 5.16263490006e-06 0)
(0.417909834825 7.589383106e-06 0)
(0.417917510997 9.50984739225e-06 0)
(0.417923437696 1.08240856767e-05 0)
(0.417927813431 1.17415631103e-05 0)
(0.417930980273 1.2540762708e-05 0)
(0.417933227268 1.33104451224e-05 0)
(0.417934776225 1.40166712787e-05 0)
(0.417935836106 1.46545074555e-05 0)
(0.417936563144 1.52598359906e-05 0)
(0.417937040477 1.58467572416e-05 0)
(0.417937325854 1.64171671594e-05 0)
(0.41793746755 1.69740930633e-05 0)
(0.417937503436 1.75205464335e-05 0)
(0.417937462558 1.80598088503e-05 0)
(0.417937366503 1.85956064865e-05 0)
(0.417937231451 1.91313406172e-05 0)
(0.417937070621 1.96703895335e-05 0)
(0.417936895489 2.02163099186e-05 0)
(0.417936716541 2.07719978453e-05 0)
(0.417936546384 2.13381167676e-05 0)
(0.417936402143 2.19154567953e-05 0)
(0.417936306836 2.25044043443e-05 0)
(0.417936292358 2.31046865614e-05 0)
(0.41793640307 2.3715365599e-05 0)
(0.417936700654 2.43347493741e-05 0)
(0.417937272473 2.4960300784e-05 0)
(0.417938245201 2.55888511257e-05 0)
(0.417939800917 2.62152342971e-05 0)
(0.417942206188 2.68197123957e-05 0)
(0.417945848015 2.7370635664e-05 0)
(0.417951311441 2.78229746986e-05 0)
(0.417959669498 2.81086125006e-05 0)
(0.417972441072 2.83616197327e-05 0)
(0.417991768711 2.796933585e-05 0)
(0.418020477973 2.54886530529e-05 0)
(0.41806219602 1.97104206016e-05 0)
(0.41812308685 9.82627337212e-06 0)
(0.418213366499 -5.70242945566e-06 0)
(0.418348818854 -2.94326317861e-05 0)
(0.418554654291 -6.5097290539e-05 0)
(0.418873311758 -0.000116939983991 0)
(0.419375187639 -0.000190006890401 0)
(0.420175175961 -0.000311546480386 0)
(0.421479623137 -0.000539641760695 0)
(0.423685161022 -0.00101252648469 0)
(0.427520861589 -0.00211636809136 0)
(0.434431189805 -0.00491731322032 0)
(0.448641697478 -0.0124164730679 0)
(0.475440290303 -0.0347175092255 0)
(0.479844485149 -0.10035338828 0)
(1.02222096466 0.238416193087 0)
(1.08213752723 0.295926657897 0)
(1.03447722297 0.239503072554 0)
(0.95461540461 0.174290173243 0)
(0.879992049938 0.121345480928 0)
(0.818614428902 0.0830994006281 0)
(0.771410843572 0.0567316865829 0)
(0.736634385217 0.0387409882201 0)
(0.711624432752 0.0264328020842 0)
(0.693916634343 0.0179731078088 0)
(0.681541451414 0.0121424291787 0)
(0.673000207121 0.00812485507798 0)
(0.667180821837 0.0053662187859 0)
(0.663271975788 0.00348427691373 0)
(0.660688986678 0.00221231087675 0)
(0.659014917309 0.00136303172444 0)
(0.657955578438 0.000804780171513 0)
(0.657305728138 0.000445330910195 0)
(0.656923865703 0.000220360069894 0)
(0.656712968649 8.4756413666e-05 0)
(0.656606842033 7.41929627678e-06 0)
(0.656566168239 -3.4919813094e-05 0)
(0.656563273604 -5.83084689509e-05 0)
(0.656577781695 -6.84376409448e-05 0)
(0.656600410918 -7.01179211037e-05 0)
(0.656625376739 -6.72516368565e-05 0)
(0.656649339547 -6.22719731269e-05 0)
(0.656670665669 -5.6586808477e-05 0)
(0.656688747232 -5.09802102674e-05 0)
(0.656703543783 -4.58582273661e-05 0)
(0.656715288573 -4.14110379957e-05 0)
(0.656724331251 -3.77416777802e-05 0)
(0.656731275441 -3.49561162372e-05 0)
(0.656736805629 -3.29359929214e-05 0)
(0.65674117563 -3.164213802e-05 0)
(0.656744397391 -3.09529106459e-05 0)
(0.656746632037 -3.06876309752e-05 0)
(0.656748183093 -3.08636972083e-05 0)
(0.656749267972 -3.12981742464e-05 0)
(0.656749990684 -3.18862196408e-05 0)
(0.656750433634 -3.25905115115e-05 0)
(0.656750668553 -3.33804105452e-05 0)
(0.656750750726 -3.42293507904e-05 0)
(0.656750722941 -3.51152266951e-05 0)
(0.656750617087 -3.60197550956e-05 0)
(0.656750457091 -3.69298535959e-05 0)
(0.656750262732 -3.78361376374e-05 0)
(0.656750050831 -3.87308479318e-05 0)
(0.656749835673 -3.96065387092e-05 0)
(0.65674963525 -4.04578955097e-05 0)
(0.656749475064 -4.12785791586e-05 0)
(0.656749388578 -4.20642212326e-05 0)
(0.656749421532 -4.28129301993e-05 0)
(0.656749637679 -4.35263825415e-05 0)
(0.656750126981 -4.42134825086e-05 0)
(0.656751018692 -4.48987622669e-05 0)
(0.656752499584 -4.56347232627e-05 0)
(0.656754830365 -4.65089481094e-05 0)
(0.656758397525 -4.76640106246e-05 0)
(0.65676379202 -4.93205640594e-05 0)
(0.656771912074 -5.19393721978e-05 0)
(0.656784370849 -5.65635703559e-05 0)
(0.656802654471 -6.40221289678e-05 0)
(0.656828203229 -7.52750758144e-05 0)
(0.656864655302 -9.19376248369e-05 0)
(0.656918770615 -0.000116491293248 0)
(0.657000106878 -0.000152170492841 0)
(0.657122597231 -0.000204336569882 0)
(0.657308306488 -0.000281657022591 0)
(0.657593089096 -0.000398259329155 0)
(0.658035886205 -0.000578925933376 0)
(0.658727246937 -0.000871668100244 0)
(0.659816673929 -0.00136784987266 0)
(0.661566137006 -0.0022431487031 0)
(0.664425822491 -0.00386550469943 0)
(0.669106517259 -0.00704614443017 0)
(0.676661583566 -0.0135541582959 0)
(0.689146702948 -0.0272760359226 0)
(0.706201245524 -0.0572988647503 0)
(0.702109471916 -0.115383251579 0)
(1.02251475389 0.170807160604 0)
(1.1013897554 0.276496485606 0)
(1.11752425938 0.266664807705 0)
(1.09214660392 0.219901711094 0)
(1.0518781548 0.168168864567 0)
(1.01020822384 0.123567418183 0)
(0.973494691826 0.0888375453366 0)
(0.943864560999 0.0630063926337 0)
(0.92114281337 0.0442232142446 0)
(0.90428410395 0.030742379886 0)
(0.892074931907 0.0211562420368 0)
(0.883404627944 0.0143953568747 0)
(0.877352874358 0.0096677529038 0)
(0.873198042012 0.00639353128581 0)
(0.87039345321 0.00415071979395 0)
(0.868534823572 0.00263387848014 0)
(0.8673287702 0.0016232118098 0)
(0.866565806524 0.000961656523522 0)
(0.866098594765 0.000537874394016 0)
(0.865825005473 0.000273666229147 0)
(0.865674878216 0.000115340757182 0)
(0.865599399002 2.68707296383e-05 0)
(0.86556932847 -2.14412517286e-05 0)
(0.86556763098 -4.35599318704e-05 0)
(0.865580057272 -5.00782592165e-05 0)
(0.865598170244 -4.79909252486e-05 0)
(0.865617605013 -4.16191167435e-05 0)
(0.865636059991 -3.35526223086e-05 0)
(0.865652425127 -2.52667886217e-05 0)
(0.865666309866 -1.75354289956e-05 0)
(0.865677728987 -1.06989781351e-05 0)
(0.865686882125 -4.82587806994e-06 0)
(0.865694030681 1.69972397081e-07 0)
(0.865699403462 4.21060644416e-06 0)
(0.865703318035 7.17864757274e-06 0)
(0.865706189617 9.21082066157e-06 0)
(0.86570816482 1.0665470293e-05 0)
(0.865709513554 1.19349307181e-05 0)
(0.86571053918 1.3011955413e-05 0)
(0.865711257131 1.39659230819e-05 0)
(0.865711701988 1.48319211828e-05 0)
(0.865711940801 1.56213846149e-05 0)
(0.865712026901 1.63453075956e-05 0)
(0.865712000373 1.7019171623e-05 0)
(0.865711889328 1.76597993309e-05 0)
(0.865711713719 1.82806602362e-05 0)
(0.865711491683 1.88944474512e-05 0)
(0.865711241777 1.9516289923e-05 0)
(0.865710981652 2.01581930147e-05 0)
(0.865710734207 2.08104532825e-05 0)
(0.865710529973 2.14690557158e-05 0)
(0.865710407113 2.21271969659e-05 0)
(0.865710417689 2.2770880984e-05 0)
(0.865710631629 2.33757147797e-05 0)
(0.865711140191 2.39023536636e-05 0)
(0.865712064168 2.42943726554e-05 0)
(0.865713579166 2.44928513285e-05 0)
(0.865715940366 2.44496796935e-05 0)
(0.865719526058 2.39878891784e-05 0)
(0.865724796344 2.27551289504e-05 0)
(0.86573215856 2.01140234674e-05 0)
(0.865743146187 1.54041243331e-05 0)
(0.865760350666 6.90154418358e-06 0)
(0.865786824584 -7.23555037803e-06 0)
(0.865826526585 -2.90280887911e-05 0)
(0.865885346391 -6.23892483192e-05 0)
(0.865972663323 -0.000114300400148 0)
(0.866103112561 -0.000195707470282 0)
(0.866299498431 -0.000324172317266 0)
(0.86659711695 -0.000528675157441 0)
(0.867050447776 -0.000859021686494 0)
(0.867746051185 -0.0014035980298 0)
(0.868822876245 -0.00231377731831 0)
(0.870498753401 -0.00386911053474 0)
(0.873100484797 -0.00660348472487 0)
(0.877040358737 -0.0115459467578 0)
(0.882661905362 -0.0206067020775 0)
(0.8901767956 -0.0371418479392 0)
(0.897166033043 -0.0668531558362 0)
(0.887708833984 -0.112722197116 0)
(1.01287875025 0.118961033563 0)
(1.08820670612 0.231806945483 0)
(1.13741367045 0.253106774813 0)
(1.15409086804 0.228992768008 0)
(1.1499421117 0.188368378801 0)
(1.13538466067 0.146579868521 0)
(1.11758895881 0.110150991222 0)
(1.10059502027 0.0808162415846 0)
(1.08612460128 0.0582265785995 0)
(1.07459097331 0.0413189538365 0)
(1.06579154506 0.0289159343365 0)
(1.05928811309 0.0199599326077 0)
(1.05459995689 0.0135812795843 0)
(1.05129105926 0.00909701397728 0)
(1.04900028288 0.00598553840844 0)
(1.04744403178 0.00385612690568 0)
(1.0464074102 0.00242049973329 0)
(1.04573181418 0.00146876457777 0)
(1.04530265151 0.000850009254001 0)
(1.04503862218 0.000457005715263 0)
(1.04488279294 0.000214432015486 0)
(1.04479580801 7.04458526466e-05 0)
(1.0447526298 -8.21994858157e-06 0)
(1.04473645382 -4.69340644604e-05 0)
(1.04473500653 -6.2459396576e-05 0)
(1.04474131791 -6.48542819987e-05 0)
(1.04475110233 -6.03568426548e-05 0)
(1.04476181913 -5.28087620112e-05 0)
(1.04477207466 -4.44679785003e-05 0)
(1.04478118373 -3.65672845556e-05 0)
(1.04478888201 -2.97057794153e-05 0)
(1.04479514215 -2.41050965317e-05 0)
(1.04480008677 -1.97494834908e-05 0)
(1.0448039167 -1.64742083294e-05 0)
(1.04480685864 -1.39601628005e-05 0)
(1.04480917117 -1.19893624178e-05 0)
(1.04481112815 -1.04271624048e-05 0)
(1.04481270336 -8.99610875231e-06 0)
(1.04481382903 -7.79104839432e-06 0)
(1.04481463274 -6.90138746227e-06 0)
(1.04481514947 -6.35691463884e-06 0)
(1.04481543173 -6.03913200664e-06 0)
(1.0448155399 -5.87648020712e-06 0)
(1.04481552438 -5.81148661322e-06 0)
(1.04481541881 -5.79346758865e-06 0)
(1.04481524743 -5.79722250649e-06 0)
(1.04481503516 -5.81177188696e-06 0)
(1.04481480264 -5.83730527885e-06 0)
(1.04481454919 -5.87728833686e-06 0)
(1.04481428701 -5.91019197612e-06 0)
(1.04481405262 -5.93019214061e-06 0)
(1.04481388364 -5.93962783699e-06 0)
(1.04481382811 -5.94463268824e-06 0)
(1.04481395191 -5.95801558951e-06 0)
(1.04481435049 -6.00612170591e-06 0)
(1.04481518171 -6.1501075453e-06 0)
(1.04481670417 -6.56070552441e-06 0)
(1.04481917607 -7.63723603273e-06 0)
(1.04482287793 -9.78882213022e-06 0)
(1.04482823171 -1.35168405628e-05 0)
(1.0448361945 -1.84892294832e-05 0)
(1.04484801969 -2.46678684734e-05 0)
(1.04486493602 -3.42661039122e-05 0)
(1.04488915855 -5.02895718965e-05 0)
(1.0449241896 -7.70915766826e-05 0)
(1.04497519258 -0.000121035518415 0)
(1.04504981204 -0.000192049882214 0)
(1.04515947402 -0.000305958573034 0)
(1.04532148793 -0.000488354497614 0)
(1.04556204903 -0.00078099238708 0)
(1.04592049762 -0.00125244262281 0)
(1.04645580672 -0.00201642615888 0)
(1.04725398019 -0.00326724159342 0)
(1.04843121162 -0.00534248279818 0)
(1.05012007928 -0.00883148328658 0)
(1.05238510067 -0.0147513407171 0)
(1.0549920358 -0.0247529325452 0)
(1.05715823306 -0.0412263548207 0)
(1.05616574557 -0.0671480844244 0)
(1.04263151355 -0.102227330178 0)
(1.00447483393 0.0814040091377 0)
(1.06917237225 0.18128854809 0)
(1.13080568857 0.21695042906 0)
(1.17375000947 0.210789169963 0)
(1.19865266286 0.183690096617 0)
(1.21019989804 0.14975170714 0)
(1.21350258409 0.116779167579 0)
(1.2125172772 0.0882206926962 0)
(1.20973103168 0.0650481441083 0)
(1.2065112593 0.0470208621046 0)
(1.20351921406 0.0334066975996 0)
(1.20101155593 0.0233555273083 0)
(1.19903458564 0.016071678658 0)
(1.19753895429 0.0108790085948 0)
(1.196441543 0.00723347051481 0)
(1.195655884 0.00471254609676 0)
(1.19510527749 0.00299636271048 0)
(1.1947269758 0.00184756825168 0)
(1.19447213006 0.00109301998324 0)
(1.19430397971 0.000608314474402 0)
(1.1941955234 0.000305341123884 0)
(1.1941274602 0.00012280886591 0)
(1.19408664561 1.89590746383e-05 0)
(1.19406363554 -3.59398134095e-05 0)
(1.19405162051 -6.09006850682e-05 0)
(1.19404641716 -6.8299498299e-05 0)
(1.19404522298 -6.60721831986e-05 0)
(1.19404621441 -5.9131261367e-05 0)
(1.19404826667 -5.03952774854e-05 0)
(1.19405071387 -4.1494247641e-05 0)
(1.19405317779 -3.32484306627e-05 0)
(1.19405546019 -2.59846748077e-05 0)
(1.19405748177 -1.974241347e-05 0)
(1.19405923792 -1.44411278165e-05 0)
(1.19406075057 -9.97361932872e-06 0)
(1.19406204168 -6.25395644079e-06 0)
(1.19406312369 -3.25049951133e-06 0)
(1.19406394865 -1.02744485022e-06 0)
(1.19406445132 5.82240886272e-07 0)
(1.19406464001 1.67433375878e-06 0)
(1.19406467797 2.48788493064e-06 0)
(1.1940646853 3.19549966986e-06 0)
(1.19406464919 3.81410281134e-06 0)
(1.19406458083 4.34715318969e-06 0)
(1.19406447499 4.80383539713e-06 0)
(1.19406431588 5.2049867648e-06 0)
(1.19406409942 5.56585686991e-06 0)
(1.19406383226 5.88663362251e-06 0)
(1.19406355055 6.16147034222e-06 0)
(1.19406328824 6.4195535842e-06 0)
(1.19406306149 6.67098812391e-06 0)
(1.19406290562 6.90313760747e-06 0)
(1.19406287368 7.09094356461e-06 0)
(1.19406303257 7.195442332e-06 0)
(1.19406345359 7.15857346892e-06 0)
(1.19406416878 6.89763173782e-06 0)
(1.19406511945 6.28326961758e-06 0)
(1.19406641808 5.02095221932e-06 0)
(1.19406842792 2.52363265627e-06 0)
(1.19407232041 -1.41506207447e-06 0)
(1.19407910556 -7.57290151791e-06 0)
(1.19408852341 -1.73294306106e-05 0)
(1.19410114179 -3.27570436769e-05 0)
(1.19411888897 -5.67507777718e-05 0)
(1.1941439101 -9.39324650972e-05 0)
(1.19417899904 -0.000151706331393 0)
(1.19422812072 -0.000241887381226 0)
(1.19429688281 -0.000383236654676 0)
(1.19439316151 -0.000605726977953 0)
(1.1945277864 -0.00095758002346 0)
(1.1947150528 -0.00151683730906 0)
(1.19497210011 -0.00241016453213 0)
(1.19531426541 -0.00384517145893 0)
(1.19573973879 -0.00616248614709 0)
(1.19618940076 -0.00991439428579 0)
(1.19644424242 -0.0159682839265 0)
(1.19591515945 -0.0255758786276 0)
(1.19343592785 -0.0402607039931 0)
(1.18663455777 -0.0613697341096 0)
(1.16989456934 -0.0877296705723 0)
(0.998962325084 0.0544316377949 0)
(1.05310956858 0.13340161648 0)
(1.1162826869 0.170777567326 0)
(1.17301273026 0.175143884646 0)
(1.21791248108 0.159583623773 0)
(1.25049860711 0.134951041107 0)
(1.27288495015 0.108411676862 0)
(1.28776727053 0.0838849824118 0)
(1.29745273834 0.0630565604956 0)
(1.3036608147 0.0462998688676 0)
(1.3075924081 0.0333203977986 0)
(1.31005375778 0.023549312847 0)
(1.31157366172 0.0163595674459 0)
(1.31249492883 0.0111708064375 0)
(1.31303856656 0.00749078790137 0)
(1.31334657897 0.00492351527131 0)
(1.31350988553 0.00316169412473 0)
(1.31358637611 0.00197316828066 0)
(1.31361257826 0.00118626907255 0)
(1.31361121807 0.000676348578854 0)
(1.31359613211 0.000354381902456 0)
(1.3135755315 0.00015780667949 0)
(1.31355422325 4.32213849134e-05 0)
(1.31353460766 -1.93570413127e-05 0)
(1.31351762041 -4.96904450868e-05 0)
(1.31350357705 -6.07800151651e-05 0)
(1.31349232301 -6.10372568456e-05 0)
(1.31348352883 -5.57218860783e-05 0)
(1.31347680961 -4.80080800189e-05 0)
(1.31347178472 -3.9728242384e-05 0)
(1.31346810763 -3.18680926609e-05 0)
(1.31346547944 -2.48944739464e-05 0)
(1.31346364935 -1.89711424507e-05 0)
(1.31346239589 -1.41073952129e-05 0)
(1.31346154036 -1.02505775432e-05 0)
(1.31346097088 -7.31354596041e-06 0)
(1.3134606093 -5.18170225823e-06 0)
(1.31346035487 -3.7100681566e-06 0)
(1.31346014916 -2.67035287141e-06 0)
(1.3134600861 -1.85668234997e-06 0)
(1.31346019866 -1.15196856557e-06 0)
(1.31346030988 -6.24239033287e-07 0)
(1.31346031133 -1.80070557425e-07 0)
(1.31346022253 2.26414354686e-07 0)
(1.31346007454 5.93685419217e-07 0)
(1.3134598862 9.33099165796e-07 0)
(1.31345965955 1.26413722015e-06 0)
(1.31345939506 1.60992638892e-06 0)
(1.31345911438 1.98713992339e-06 0)
(1.31345884192 2.3658641868e-06 0)
(1.31345858237 2.7165119156e-06 0)
(1.31345834821 3.01314165692e-06 0)
(1.3134581706 3.21554672162e-06 0)
(1.31345809467 3.26133622732e-06 0)
(1.31345818833 3.059374729e-06 0)
(1.31345856231 2.48734068116e-06 0)
(1.31345931979 1.42395042353e-06 0)
(1.31346037433 -1.90811432103e-07 0)
(1.31346210408 -2.5684855093e-06 0)
(1.31346482923 -6.19186118671e-06 0)
(1.31346861635 -1.25222807665e-05 0)
(1.31347375122 -2.3227954744e-05 0)
(1.31348046786 -3.99165580749e-05 0)
(1.31348919094 -6.57233735952e-05 0)
(1.31350018942 -0.000105712876778 0)
(1.31351346969 -0.00016772559121 0)
(1.31352856294 -0.000264005026156 0)
(1.31354400797 -0.000413753582691 0)
(1.3135563809 -0.000647295131347 0)
(1.31355845574 -0.0010127509061 0)
(1.3135359515 -0.0015867226366 0)
(1.31346087453 -0.00249042486032 0)
(1.31327782486 -0.00391541020544 0)
(1.31287751394 -0.00616141478686 0)
(1.31204684315 -0.00968530382869 0)
(1.31037427617 -0.0151493338105 0)
(1.30709382885 -0.0234156116324 0)
(1.30097045078 -0.0353770208169 0)
(1.29008533807 -0.051545245132 0)
(1.27086721105 -0.0707825735606 0)
(0.995736073914 0.0346338725767 0)
(1.04179514616 0.0905689287318 0)
(1.10222839728 0.121549571527 0)
(1.16491413592 0.12960584317 0)
(1.22202569391 0.12200928159 0)
(1.26951896352 0.106019954751 0)
(1.30680229388 0.0870975715947 0)
(1.3349954208 0.0686366885013 0)
(1.35574484844 0.0523698270254 0)
(1.37069623906 0.0389255709166 0)
(1.38128280943 0.0282979710813 0)
(1.3886626916 0.0201710946204 0)
(1.39373027728 0.0141172182953 0)
(1.39715643981 0.00970490153051 0)
(1.39943401792 0.00654998356915 0)
(1.400919113 0.00433363071751 0)
(1.40186535795 0.00280307618658 0)
(1.40245099253 0.00176440235809 0)
(1.40279961199 0.00107256345385 0)
(1.40299573424 0.000621304514542 0)
(1.40309628366 0.00033418546848 0)
(1.40313897243 0.000157128485094 0)
(1.40314837735 5.24373891415e-05 0)
(1.4031399956 -5.87698052298e-06 0)
(1.40312329676 -3.51784165022e-05 0)
(1.40310389785 -4.70384951124e-05 0)
(1.40308486422 -4.89183533695e-05 0)
(1.4030677385 -4.55141785441e-05 0)
(1.40305313951 -3.96954377729e-05 0)
(1.4030411579 -3.31449453427e-05 0)
(1.40303160693 -2.67891653676e-05 0)
(1.40302417388 -2.10863727298e-05 0)
(1.40301850776 -1.62178923114e-05 0)
(1.40301426304 -1.22056801273e-05 0)
(1.40301113399 -8.96860726102e-06 0)
(1.40300887641 -6.38598812047e-06 0)
(1.40300730466 -4.33759858927e-06 0)
(1.40300627167 -2.70770210704e-06 0)
(1.40300562225 -1.36306678716e-06 0)
(1.40300517227 -2.59894344852e-07 0)
(1.40300478326 6.07076850533e-07 0)
(1.40300449723 1.2202633872e-06 0)
(1.40300435271 1.67333344552e-06 0)
(1.40300425575 2.04915168239e-06 0)
(1.40300415277 2.39848648266e-06 0)
(1.40300403033 2.74525534131e-06 0)
(1.40300388409 3.10301974942e-06 0)
(1.40300371258 3.48187666427e-06 0)
(1.40300350657 3.88701059081e-06 0)
(1.40300326047 4.29543789337e-06 0)
(1.403002993 4.67910969915e-06 0)
(1.40300273115 5.01394650522e-06 0)
(1.40300249934 5.26442373217e-06 0)
(1.40300232478 5.37616870011e-06 0)
(1.40300223264 5.26847019066e-06 0)
(1.4030022333 4.81706639584e-06 0)
(1.40300231702 3.82663000417e-06 0)
(1.40300251803 2.08062910785e-06 0)
(1.40300285492 -5.98442230967e-07 0)
(1.40300347915 -5.15000138759e-06 0)
(1.40300445628 -1.23242729441e-05 0)
(1.40300539491 -2.34225065505e-05 0)
(1.4030057288 -4.02942682347e-05 0)
(1.40300464269 -6.59095449286e-05 0)
(1.40300056306 -0.00010487561538 0)
(1.40299063109 -0.000164300652857 0)
(1.40296990799 -0.000255184459111 0)
(1.40292993404 -0.000394531268378 0)
(1.40285628892 -0.000608813635373 0)
(1.40272451926 -0.000939399851608 0)
(1.40249399889 -0.00145114555417 0)
(1.40209693211 -0.00224387103745 0)
(1.40141882667 -0.00347031802731 0)
(1.40026714588 -0.00536028808749 0)
(1.39832164327 -0.00824643082267 0)
(1.39505713043 -0.0125795310892 0)
(1.38963974184 -0.0188956283983 0)
(1.38088605984 -0.0276695300775 0)
(1.36724035864 -0.0390326565385 0)
(1.34621193393 -0.0521485831514 0)
(0.994011531443 0.0192358185593 0)
(1.0348476396 0.0523338457145 0)
(1.09199263965 0.0723631301993 0)
(1.15662422287 0.0791292359124 0)
(1.2203211988 0.0761045533219 0)
(1.27701950209 0.0673339814705 0)
(1.32424425204 0.0561509137631 0)
(1.36181580945 0.0447990162875 0)
(1.39068538426 0.0345303700838 0)
(1.41226081527 0.0258814014796 0)
(1.42801825336 0.0189464558782 0)
(1.43929880603 0.0135848601758 0)
(1.44722792726 0.00955633916051 0)
(1.45270381069 0.00659982548202 0)
(1.45641838671 0.00447378268332 0)
(1.45889052958 0.00297296513715 0)
(1.46050094085 0.00193205798036 0)
(1.46152375836 0.00122280234459 0)
(1.46215305743 0.000748465261816 0)
(1.4625240218 0.000437732682741 0)
(1.46272929503 0.000239039276271 0)
(1.46283130271 0.000115746970509 0)
(1.46287136413 4.22262090814e-05 0)
(1.46287620447 7.56823414071e-07 0)
(1.4628625972 -2.04953142374e-05 0)
(1.46284077364 -2.95525822377e-05 0)
(1.46281672515 -3.15617542159e-05 0)
(1.46279370036 -2.97728560282e-05 0)
(1.46277326505 -2.61874192926e-05 0)
(1.46275599113 -2.19898076685e-05 0)
(1.46274189309 -1.78386093175e-05 0)
(1.46273069697 -1.40642759325e-05 0)
(1.46272200482 -1.08024236912e-05 0)
(1.4627153901 -8.0757247959e-06 0)
(1.46271045162 -5.83984116252e-06 0)
(1.4627068401 -4.02706459062e-06 0)
(1.46270426165 -2.57275704799e-06 0)
(1.46270245936 -1.43341694568e-06 0)
(1.46270118929 -5.77190545076e-07 0)
(1.46270034707 7.56361118649e-08 0)
(1.46269984164 6.23165225544e-07 0)
(1.46269951634 1.1635154188e-06 0)
(1.46269930073 1.65368790197e-06 0)
(1.4626991505 2.08731642764e-06 0)
(1.4626990296 2.48703788283e-06 0)
(1.46269891301 2.87107061537e-06 0)
(1.46269878213 3.2491243602e-06 0)
(1.46269862428 3.62279915577e-06 0)
(1.46269843034 3.98686773576e-06 0)
(1.4626981955 4.34081467527e-06 0)
(1.46269792195 4.67555421087e-06 0)
(1.46269761447 4.96113530283e-06 0)
(1.46269727803 5.15099547232e-06 0)
(1.46269691925 5.17932111773e-06 0)
(1.46269654703 4.95628500183e-06 0)
(1.46269617634 4.36641249056e-06 0)
(1.46269582997 3.27602893602e-06 0)
(1.46269541652 1.55596259713e-06 0)
(1.46269470244 -1.04088823515e-06 0)
(1.46269350177 -5.04462497706e-06 0)
(1.46269155565 -1.14542687158e-05 0)
(1.46268820573 -2.13848935364e-05 0)
(1.46268228723 -3.63501949309e-05 0)
(1.46267191932 -5.86978406086e-05 0)
(1.46265392059 -9.2008513785e-05 0)
(1.46262299271 -0.000141724339427 0)
(1.46257050398 -0.000216093733204 0)
(1.46248233267 -0.000327497475121 0)
(1.46233530591 -0.000494770471642 0)
(1.46209140071 -0.000746865834106 0)
(1.46168998932 -0.00112927074682 0)
(1.46103437711 -0.00170893239578 0)
(1.45996890487 -0.00258447758026 0)
(1.45824665121 -0.00389952887069 0)
(1.45548396302 -0.005852591416 0)
(1.45109930236 -0.00869660498471 0)
(1.44424610083 -0.0127068279731 0)
(1.43381392715 -0.0180854079841 0)
(1.41847884807 -0.024808745602 0)
(1.3962970468 -0.0323615078095 0)
(0.993269667749 0.00617016172661 0)
(1.03158100501 0.0171020487893 0)
(1.08672183349 0.0239906472547 0)
(1.15174557109 0.0265606642697 0)
(1.21823540241 0.0258180595798 0)
(1.27925779517 0.0230488895419 0)
(1.33140142659 0.0193656366652 0)
(1.37377606344 0.0155468627099 0)
(1.40691061026 0.0120449311596 0)
(1.43203319442 0.00906639262462 0)
(1.45060216674 0.00666057450308 0)
(1.46402979462 0.00479005227941 0)
(1.47354996283 0.00337836375736 0)
(1.48017523108 0.00233864122589 0)
(1.48470158986 0.00158877711498 0)
(1.48773510082 0.00105810468228 0)
(1.48972570238 0.000689223597107 0)
(1.49100044764 0.000437337544445 0)
(1.49179268067 0.000268517927755 0)
(1.49226603446 0.000157673234659 0)
(1.49253333939 8.66164162069e-05 0)
(1.49267106683 4.2398739509e-05 0)
(1.49273010617 1.59401663435e-05 0)
(1.49274365308 9.41361567746e-07 0)
(1.49273269421 -6.80644248477e-06 0)
(1.4927101377 -1.0165998929e-05 0)
(1.49268370574 -1.09766084192e-05 0)
(1.49265766268 -1.04015315034e-05 0)
(1.49263414649 -9.1593070583e-06 0)
(1.49261402971 -7.67283616974e-06 0)
(1.49259746247 -6.17934782349e-06 0)
(1.49258420809 -4.80281800727e-06 0)
(1.49257385191 -3.5947093524e-06 0)
(1.4925659259 -2.56497554443e-06 0)
(1.49255997577 -1.70024067247e-06 0)
(1.4925555944 -9.79246017104e-07 0)
(1.49255243363 -3.81317166734e-07 0)
(1.49255020677 1.10548427148e-07 0)
(1.49254869914 5.2657773155e-07 0)
(1.49254771273 9.39532186864e-07 0)
(1.4925470699 1.3009585786e-06 0)
(1.49254666334 1.62637890462e-06 0)
(1.49254641824 1.94096649008e-06 0)
(1.49254627233 2.25894345516e-06 0)
(1.49254617696 2.59049753888e-06 0)
(1.49254609788 2.94105194826e-06 0)
(1.4925460103 3.31245549454e-06 0)
(1.49254589581 3.70316159087e-06 0)
(1.49254573983 4.10694795083e-06 0)
(1.49254553116 4.5135885106e-06 0)
(1.49254526278 4.90521571497e-06 0)
(1.49254492908 5.25295459783e-06 0)
(1.49254452266 5.51591228713e-06 0)
(1.49254403205 5.63714452865e-06 0)
(1.49254343735 5.53747460929e-06 0)
(1.49254270644 5.10602031057e-06 0)
(1.49254180724 4.18339636082e-06 0)
(1.49254065961 2.56464248906e-06 0)
(1.49253891163 1.83387027066e-07 0)
(1.49253605661 -3.26745795755e-06 0)
(1.49253163347 -8.68969272081e-06 0)
(1.49252475569 -1.67873295302e-05 0)
(1.49251376524 -2.85659418466e-05 0)
(1.49249604367 -4.55190784015e-05 0)
(1.49246733264 -6.97458818049e-05 0)
(1.49242074677 -0.000104279980462 0)
(1.49234539664 -0.000153530647876 0)
(1.49222383378 -0.000223514844762 0)
(1.49202773275 -0.000322789148342 0)
(1.4917105415 -0.000464611262508 0)
(1.49120038001 -0.000672488429219 0)
(1.49038629032 -0.000973810020455 0)
(1.48909227329 -0.00140347854512 0)
(1.48704600143 -0.00201109297759 0)
(1.48383807836 -0.00285984465299 0)
(1.47887045445 -0.00402006293135 0)
(1.47130739716 -0.00555053173184 0)
(1.46009106332 -0.00745932315634 0)
(1.44400744497 -0.00966093890301 0)
(1.4213487845 -0.0119156496811 0)
(0.993270465907 -0.006168391936 0)
(1.03158098894 -0.0171003761935 0)
(1.08672176961 -0.0239897677507 0)
(1.15174561166 -0.0265602547493 0)
(1.21823548286 -0.0258179998384 0)
(1.27925789925 -0.0230491143443 0)
(1.3314015543 -0.019366047802 0)