/*--------------------------------*- C++ -*----------------------------------*\
| =========                 |                                                 |
| \\      /  F ield         | OpenFOAM: The Open Source CFD Toolbox           |
|  \\    /   O peration     | Version:  2106                                  |
|   \\  /    A nd           | Website:  www.openfoam.com                      |
|    \\/     M anipulation  |                                                 |
\*---------------------------------------------------------------------------*/
FoamFile
{
    version     2.0;
    format      ascii;
    arch        "LSB;label=32;scalar=64";
    class       volVectorField;
    location    "0.01";
    object      U;
}
// * * * * * * * * * * * * * * * * * * * * * * * * * * * * * * * * * * * * * //

dimensions      [0 1 -1 0 0 0 0];

internalField   nonuniform List<vector> 
800
(
(-9.62448e-12 0 0)
(-7.863e-12 0 0)
(6.80872e-12 0 0)
(2.59957e-11 0 0)
(1.0528e-10 0 0)
(6.87063e-11 0 0)
(3.9675e-11 0 0)
(1.68057e-11 0 0)
(-5.88755e-12 0 0)
(-4.38029e-11 0 0)
(-7.60309e-11 0 0)
(-9.61193e-11 0 0)
(-5.1133e-11 0 0)
(-1.43055e-11 0 0)
(-5.2699e-11 0 0)
(-5.68703e-11 0 0)
(-8.1912e-11 0 0)
(-8.89493e-11 0 0)
(2.79839e-12 0 0)
(7.21256e-11 0 0)
(7.31653e-11 0 0)
(5.9066e-11 0 0)
(-3.02067e-12 0 0)
(-4.84214e-11 0 0)
(-6.22388e-11 0 0)
(-8.35005e-11 0 0)
(-1.87969e-11 0 0)
(8.3255e-12 0 0)
(3.80852e-11 0 0)
(7.1235e-11 0 0)
(6.13602e-11 0 0)
(8.19123e-11 0 0)
(9.14737e-11 0 0)
(9.21686e-11 0 0)
(7.62633e-11 0 0)
(3.34978e-11 0 0)
(9.0985e-11 0 0)
(9.12691e-11 0 0)
(8.06862e-11 0 0)
(3.60078e-11 0 0)
(5.53343e-13 0 0)
(-3.36949e-11 0 0)
(-1.53521e-11 0 0)
(3.0067e-12 0 0)
(-5.42883e-12 0 0)
(-2.70437e-11 0 0)
(-4.726e-11 0 0)
(-4.86456e-11 0 0)
(-1.11562e-11 0 0)
(5.90013e-11 0 0)
(7.72401e-11 0 0)
(1.00448e-11 0 0)
(-6.80064e-12 0 0)
(-2.13267e-11 0 0)
(-5.59488e-11 0 0)
(-2.53522e-11 0 0)
(1.67401e-11 0 0)
(2.69728e-11 0 0)
(-1.62627e-13 0 0)
(-4.19089e-11 0 0)
(-3.71303e-11 0 0)
(-3.37719e-11 0 0)
(-4.12289e-11 0 0)
(-5.66047e-11 0 0)
(-5.07109e-12 0 0)
(5.03342e-11 0 0)
(5.33578e-11 0 0)
(2.08266e-11 0 0)
(1.17069e-11 0 0)
(2.14651e-11 0 0)
(2.86705e-11 0 0)
(2.0855e-11 0 0)
(2.70596e-11 0 0)
(2.36223e-11 0 0)
(3.0316e-11 0 0)
(3.61596e-11 0 0)
(-2.97388e-11 0 0)
(-2.66226e-11 0 0)
(-1.14426e-11 0 0)
(-2.36814e-11 0 0)
(-4.01173e-11 0 0)
(-3.84362e-11 0 0)
(-1.28103e-11 0 0)
(-4.34416e-11 0 0)
(-6.99569e-11 0 0)
(-5.96039e-11 0 0)
(-9.81969e-12 0 0)
(4.46927e-11 0 0)
(4.57826e-11 0 0)
(-7.60799e-12 0 0)
(-3.22235e-11 0 0)
(-4.26063e-11 0 0)
(-5.70546e-11 0 0)
(1.28827e-11 0 0)
(6.8196e-11 0 0)
(2.78519e-11 0 0)
(-4.27122e-11 0 0)
(-6.53544e-11 0 0)
(-4.36488e-11 0 0)
(-6.43365e-11 0 0)
(-7.64951e-11 0 0)
(-3.26582e-11 0 0)
(1.28406e-11 0 0)
(7.68246e-11 0 0)
(1.20481e-10 0 0)
(9.51466e-11 0 0)
(5.38457e-11 0 0)
(1.63163e-11 0 0)
(1.52237e-11 0 0)
(2.8269e-11 0 0)
(4.92437e-11 0 0)
(2.65504e-11 0 0)
(2.09981e-11 0 0)
(4.37984e-11 0 0)
(2.41144e-11 0 0)
(-3.29611e-11 0 0)
(-5.36727e-11 0 0)
(-8.9515e-12 0 0)
(1.48265e-12 0 0)
(-8.74487e-12 0 0)
(-1.15988e-11 0 0)
(5.18947e-12 0 0)
(4.01019e-12 0 0)
(3.10998e-11 0 0)
(2.24384e-11 0 0)
(-2.07575e-11 0 0)
(-6.2853e-11 0 0)
(-5.86532e-11 0 0)
(-2.30571e-11 0 0)
(8.0353e-12 0 0)
(6.08551e-12 0 0)
(-5.87215e-12 0 0)
(-1.98138e-11 0 0)
(-4.91925e-11 0 0)
(-8.53451e-11 0 0)
(-3.22632e-11 0 0)
(-1.31504e-11 0 0)
(1.43616e-11 0 0)
(-4.9014e-12 0 0)
(-2.56715e-11 0 0)
(-3.75535e-11 0 0)
(-2.74913e-11 0 0)
(-2.35535e-11 0 0)
(1.15376e-11 0 0)
(5.20325e-11 0 0)
(3.51612e-11 0 0)
(3.17274e-11 0 0)
(1.81973e-11 0 0)
(2.65323e-11 0 0)
(4.09818e-11 0 0)
(3.83412e-11 0 0)
(-1.41163e-11 0 0)
(-7.44451e-11 0 0)
(-9.17405e-11 0 0)
(-8.71093e-11 0 0)
(-5.57775e-11 0 0)
(-4.25351e-11 0 0)
(-3.45352e-11 0 0)
(-3.7396e-11 0 0)
(-6.00625e-11 0 0)
(-2.06356e-11 0 0)
(-1.4741e-11 0 0)
(-4.41269e-11 0 0)
(-2.08562e-11 0 0)
(-2.02769e-11 0 0)
(4.90049e-12 0 0)
(3.71831e-11 0 0)
(7.30413e-11 0 0)
(4.71083e-11 0 0)
(5.36422e-11 0 0)
(1.04576e-10 0 0)
(8.12e-11 0 0)
(3.93765e-11 0 0)
(-1.87567e-11 0 0)
(-3.62737e-11 0 0)
(-3.09508e-11 0 0)
(-5.15761e-11 0 0)
(-6.46982e-11 0 0)
(1.21009e-11 0 0)
(6.25789e-11 0 0)
(5.81161e-11 0 0)
(3.45175e-11 0 0)
(4.32744e-11 0 0)
(4.86143e-11 0 0)
(5.69808e-11 0 0)
(3.46305e-11 0 0)
(8.55195e-12 0 0)
(4.45002e-11 0 0)
(9.85839e-12 0 0)
(-6.05902e-11 0 0)
(-4.13882e-11 0 0)
(1.34285e-11 0 0)
(4.17389e-11 0 0)
(-1.22527e-11 0 0)
(-3.32098e-11 0 0)
(1.03767e-11 0 0)
(5.90904e-11 0 0)
(7.67228e-11 0 0)
(3.75255e-11 0 0)
(1.10858e-11 0 0)
(2.25863e-11 0 0)
(1.78375e-11 0 0)
(8.09347e-12 0 0)
(-4.15461e-11 0 0)
(-1.04205e-10 0 0)
(-8.82573e-11 0 0)
(-2.82871e-11 0 0)
(-5.54429e-12 0 0)
(1.95827e-11 0 0)
(4.42379e-11 0 0)
(7.85784e-11 0 0)
(7.59647e-11 0 0)
(5.56192e-11 0 0)
(5.76471e-11 0 0)
(3.38137e-11 0 0)
(-1.13152e-12 0 0)
(-4.18764e-11 0 0)
(-6.51442e-11 0 0)
(-2.35608e-11 0 0)
(2.07685e-11 0 0)
(1.09835e-11 0 0)
(-6.05978e-11 0 0)
(-6.06926e-11 0 0)
(-4.05319e-11 0 0)
(-5.03474e-11 0 0)
(-4.51467e-11 0 0)
(-1.0452e-11 0 0)
(-2.45427e-11 0 0)
(-9.72772e-11 0 0)
(-1.33181e-10 0 0)
(-1.4367e-10 0 0)
(-1.48328e-10 0 0)
(-7.01847e-11 0 0)
(3.35831e-11 0 0)
(9.52745e-11 0 0)
(8.76217e-11 0 0)
(8.65082e-11 0 0)
(6.71666e-11 0 0)
(3.31605e-11 0 0)
(1.25523e-11 0 0)
(2.63928e-11 0 0)
(5.93445e-11 0 0)
(4.75239e-12 0 0)
(-2.34485e-11 0 0)
(-4.38848e-11 0 0)
(-9.43609e-11 0 0)
(-1.22366e-10 0 0)
(-5.1905e-11 0 0)
(-1.5516e-11 0 0)
(-2.12448e-11 0 0)
(-9.98505e-12 0 0)
(-1.98177e-11 0 0)
(5.09509e-11 0 0)
(1.68458e-10 0 0)
(1.29546e-10 0 0)
(1.0459e-10 0 0)
(1.08026e-10 0 0)
(2.1886e-11 0 0)
(-5.68712e-11 0 0)
(-8.14439e-11 0 0)
(-1.71968e-11 0 0)
(1.86493e-11 0 0)
(-5.9762e-13 0 0)
(-6.76954e-12 0 0)
(-1.22129e-11 0 0)
(-1.69834e-11 0 0)
(-1.49899e-11 0 0)
(-1.05718e-12 0 0)
(2.73846e-11 0 0)
(4.80768e-11 0 0)
(1.67602e-11 0 0)
(1.56567e-11 0 0)
(-1.0907e-11 0 0)
(-3.01493e-11 0 0)
(4.1215e-12 0 0)
(7.71955e-11 0 0)
(1.24312e-10 0 0)
(7.30054e-11 0 0)
(3.90125e-11 0 0)
(6.05886e-11 0 0)
(7.49488e-11 0 0)
(6.04564e-11 0 0)
(3.96148e-11 0 0)
(1.11908e-11 0 0)
(-2.0257e-11 0 0)
(-5.28994e-11 0 0)
(-3.57649e-11 0 0)
(-2.36069e-11 0 0)
(-3.60914e-12 0 0)
(-2.35656e-11 0 0)
(-6.47651e-11 0 0)
(-5.39537e-11 0 0)
(-5.76102e-11 0 0)
(-9.2363e-11 0 0)
(-7.39767e-11 0 0)
(-4.80748e-11 0 0)
(-8.54561e-12 0 0)
(8.97276e-11 0 0)
(7.29212e-11 0 0)
(3.556e-11 0 0)
(1.41063e-11 0 0)
(-1.83467e-11 0 0)
(-3.62988e-11 0 0)
(-3.32707e-11 0 0)
(-3.63849e-11 0 0)
(-8.74457e-12 0 0)
(4.58551e-11 0 0)
(3.37602e-11 0 0)
(-1.24197e-11 0 0)
(-5.34519e-11 0 0)
(-6.03527e-11 0 0)
(-4.92413e-11 0 0)
(-8.22202e-11 0 0)
(-4.30806e-11 0 0)
(7.89022e-11 0 0)
(1.31585e-10 0 0)
(1.45005e-10 0 0)
(6.88214e-11 0 0)
(8.14023e-12 0 0)
(2.51656e-12 0 0)
(-2.09459e-12 0 0)
(1.97739e-11 0 0)
(1.04513e-10 0 0)
(9.50566e-11 0 0)
(3.46844e-11 0 0)
(3.87953e-11 0 0)
(3.26611e-11 0 0)
(4.97851e-11 0 0)
(6.19396e-11 0 0)
(-3.56156e-11 0 0)
(-9.16069e-11 0 0)
(-1.25305e-10 0 0)
(-1.21991e-10 0 0)
(-5.77876e-11 0 0)
(-1.77669e-11 0 0)
(-1.09793e-11 0 0)
(-1.65751e-11 0 0)
(-1.46091e-11 0 0)
(-1.6896e-11 0 0)
(-5.0062e-12 0 0)
(-1.46369e-12 0 0)
(-5.61234e-11 0 0)
(-1.04348e-10 0 0)
(-6.48994e-11 0 0)
(3.2038e-11 0 0)
(5.73198e-11 0 0)
(7.40232e-11 0 0)
(5.39519e-11 0 0)
(3.39416e-11 0 0)
(2.43404e-11 0 0)
(-5.82004e-12 0 0)
(-3.82854e-13 0 0)
(-3.24304e-12 0 0)
(-7.9123e-12 0 0)
(2.13823e-11 0 0)
(4.90124e-12 0 0)
(-2.88019e-11 0 0)
(-4.05316e-11 0 0)
(-5.52346e-11 0 0)
(-4.60471e-11 0 0)
(-2.53348e-11 0 0)
(-2.50232e-11 0 0)
(-3.08694e-11 0 0)
(1.28259e-11 0 0)
(2.35861e-12 0 0)
(-5.37508e-12 0 0)
(-2.38022e-11 0 0)
(-9.70281e-12 0 0)
(-1.83669e-12 0 0)
(-2.42154e-11 0 0)
(-6.2321e-11 0 0)
(-8.67468e-11 0 0)
(-8.73775e-11 0 0)
(-1.10041e-10 0 0)
(-2.40109e-11 0 0)
(7.1324e-11 0 0)
(6.01138e-11 0 0)
(5.11979e-11 0 0)
(6.38689e-11 0 0)
(3.31026e-11 0 0)
(-5.88688e-12 0 0)
(-1.87958e-11 0 0)
(-2.11836e-11 0 0)
(-3.48321e-11 0 0)
(4.52295e-08 0 0)
(2.85569e-05 0 0)
(0.00172306 0 0)
(0.018555 0 0)
(0.067082 0 0)
(0.135748 0 0)
(0.208829 0 0)
(0.281712 0 0)
(0.35425 0 0)
(0.426889 0 0)
(0.499996 0 0)
(0.573915 0 0)
(0.648879 0 0)
(0.724694 0 0)
(0.800354 0 0)
(0.871199 0 0)
(0.926772 0 0)
(0.945404 0 0)
(0.924905 0 0)
(0.925547 0 0)
(0.927885 0 0)
(0.928771 0 0)
(0.929931 0 0)
(0.931064 0 0)
(0.931414 0 0)
(0.934531 0 0)
(0.931235 0 0)
(0.914419 0 0)
(0.921029 0 0)
(0.929353 0 0)
(0.942384 0 0)
(0.943846 0 0)
(0.916685 0 0)
(0.669828 0 0)
(0.126168 0 0)
(0.00115732 0 0)
(2.30435e-07 0 0)
(3.77512e-11 0 0)
(-2.74185e-11 0 0)
(-2.34544e-11 0 0)
(3.33412e-11 0 0)
(2.94175e-11 0 0)
(-1.61745e-11 0 0)
(3.01623e-12 0 0)
(2.61557e-11 0 0)
(1.97673e-11 0 0)
(-6.999e-12 0 0)
(-4.10918e-11 0 0)
(-3.31627e-11 0 0)
(-3.36677e-11 0 0)
(-3.08527e-11 0 0)
(-2.62964e-11 0 0)
(-3.43291e-11 0 0)
(-2.60415e-11 0 0)
(7.17928e-11 0 0)
(7.54772e-11 0 0)
(8.34003e-11 0 0)
(7.90293e-11 0 0)
(6.4706e-11 0 0)
(4.25572e-11 0 0)
(3.15693e-11 0 0)
(2.86779e-11 0 0)
(-5.33311e-11 0 0)
(-1.0659e-10 0 0)
(-1.2671e-10 0 0)
(-5.9135e-11 0 0)
(5.80496e-11 0 0)
(1.41503e-10 0 0)
(1.93524e-10 0 0)
(1.532e-10 0 0)
(3.89996e-11 0 0)
(1.84864e-11 0 0)
(3.77673e-11 0 0)
(2.68962e-11 0 0)
(-1.80253e-11 0 0)
(-8.82134e-12 0 0)
(2.55657e-11 0 0)
(1.04168e-11 0 0)
(-5.05298e-11 0 0)
(-8.21215e-11 0 0)
(-4.86555e-11 0 0)
(-1.39245e-11 0 0)
(-2.00819e-11 0 0)
(-7.59932e-11 0 0)
(-1.14528e-11 0 0)
(3.51071e-11 0 0)
(1.97768e-11 0 0)
(-8.14471e-13 0 0)
(-1.73593e-11 0 0)
(-6.30234e-11 0 0)
(-8.42788e-11 0 0)
(-6.44999e-11 0 0)
(-1.69574e-13 0 0)
(4.88978e-11 0 0)
(4.1629e-11 0 0)
(6.68016e-11 0 0)
(7.28818e-11 0 0)
(5.83478e-11 0 0)
(5.81221e-11 0 0)
(1.08817e-11 0 0)
(-3.33209e-11 0 0)
(-3.27825e-11 0 0)
(-8.11182e-11 0 0)
(-8.4879e-11 0 0)
(-3.53719e-11 0 0)
(-2.28088e-11 0 0)
(-2.64063e-11 0 0)
(-6.56428e-12 0 0)
(-1.93885e-11 0 0)
(-4.12598e-11 0 0)
(-5.66095e-12 0 0)
(-3.0356e-12 0 0)
(-4.40938e-11 0 0)
(-2.69576e-11 0 0)
(6.19406e-12 0 0)
(6.09198e-11 0 0)
(1.30304e-10 0 0)
(1.23432e-10 0 0)
(7.76752e-12 0 0)
(-3.95031e-11 0 0)
(-2.48178e-11 0 0)
(-4.52284e-12 0 0)
(2.82839e-11 0 0)
(6.41685e-11 0 0)
(1.41573e-11 0 0)
(1.37408e-11 0 0)
(-3.09065e-11 0 0)
(-8.90353e-11 0 0)
(-7.07764e-11 0 0)
(-3.31782e-13 0 0)
(7.66173e-11 0 0)
(6.3633e-11 0 0)
(3.70584e-11 0 0)
(4.74504e-11 0 0)
(3.58853e-11 0 0)
(-1.01899e-11 0 0)
(-4.35956e-11 0 0)
(-4.73598e-11 0 0)
(-5.84648e-11 0 0)
(2.07815e-11 0 0)
(9.63254e-11 0 0)
(1.09022e-10 0 0)
(4.14742e-11 0 0)
(-5.62483e-11 0 0)
(-9.54804e-11 0 0)
(-5.88278e-11 0 0)
(-2.67299e-11 0 0)
(-3.18732e-11 0 0)
(6.30948e-12 0 0)
(4.17068e-11 0 0)
(3.54288e-11 0 0)
(-1.55878e-11 0 0)
(-4.1908e-11 0 0)
(-7.14191e-12 0 0)
(7.18666e-12 0 0)
(-1.14203e-10 0 0)
(-1.04937e-10 0 0)
(-2.80882e-11 0 0)
(-6.03986e-12 0 0)
(4.83415e-11 0 0)
(9.37852e-11 0 0)
(1.03556e-10 0 0)
(1.2269e-10 0 0)
(8.27072e-11 0 0)
(-2.84869e-11 0 0)
(-2.93337e-11 0 0)
(2.68154e-12 0 0)
(-1.8356e-11 0 0)
(-6.57215e-11 0 0)
(-3.64149e-11 0 0)
(-1.3875e-11 0 0)
(-8.56041e-12 0 0)
(-3.58774e-11 0 0)
(-3.68868e-11 0 0)
(-2.53465e-11 0 0)
(-4.756e-11 0 0)
(-4.08379e-12 0 0)
(1.94472e-11 0 0)
(-6.56709e-12 0 0)
(-8.15514e-11 0 0)
(-1.45896e-10 0 0)
(-9.77869e-11 0 0)
(-8.17026e-11 0 0)
(-3.25975e-11 0 0)
(8.25392e-12 0 0)
(3.8944e-11 0 0)
(3.97382e-11 0 0)
(-7.82262e-13 0 0)
(-5.42969e-11 0 0)
(-7.39796e-11 0 0)
(-5.65041e-11 0 0)
(-3.03981e-13 0 0)
(4.64361e-11 0 0)
(6.9396e-11 0 0)
(8.60429e-11 0 0)
(8.23472e-11 0 0)
(4.98437e-11 0 0)
(5.39574e-11 0 0)
(5.24177e-11 0 0)
(3.77316e-11 0 0)
(1.59213e-11 0 0)
(-2.7703e-11 0 0)
(-5.88052e-11 0 0)
(-3.97007e-11 0 0)
(1.4574e-11 0 0)
(4.92607e-11 0 0)
(3.37556e-11 0 0)
(1.06768e-11 0 0)
(7.54166e-12 0 0)
(5.55793e-12 0 0)
(-4.47635e-11 0 0)
(-1.27955e-11 0 0)
(3.00804e-11 0 0)
(9.98306e-12 0 0)
(1.75058e-11 0 0)
(5.14149e-12 0 0)
(-7.17755e-11 0 0)
(-1.14982e-10 0 0)
(-4.96871e-11 0 0)
(-1.72418e-11 0 0)
(1.86634e-11 0 0)
(5.18308e-11 0 0)
(1.67505e-11 0 0)
(4.18578e-11 0 0)
(3.92813e-11 0 0)
(2.09804e-11 0 0)
(3.89485e-11 0 0)
(7.07228e-12 0 0)
(-3.58719e-11 0 0)
(-5.875e-11 0 0)
(-5.42688e-11 0 0)
(-1.51747e-11 0 0)
(2.69585e-11 0 0)
(-3.12619e-11 0 0)
(-6.68391e-11 0 0)
(-4.25582e-11 0 0)
(-3.55514e-11 0 0)
(-6.16987e-11 0 0)
(-3.93138e-11 0 0)
(2.20095e-12 0 0)
(4.14318e-11 0 0)
(8.16069e-11 0 0)
(1.11991e-10 0 0)
(5.53347e-11 0 0)
(3.84512e-11 0 0)
(9.55818e-12 0 0)
(-1.34539e-11 0 0)
(-1.23163e-11 0 0)
(2.10822e-11 0 0)
(7.67234e-11 0 0)
(5.15156e-11 0 0)
(1.35206e-11 0 0)
(-4.25323e-11 0 0)
(-6.22627e-11 0 0)
(-2.96119e-11 0 0)
(-1.34223e-11 0 0)
(-3.35048e-11 0 0)
(-5.72486e-12 0 0)
(4.55315e-11 0 0)
(9.09204e-11 0 0)
(6.41775e-11 0 0)
(4.24037e-11 0 0)
(-4.15537e-11 0 0)
(-9.22634e-11 0 0)
(-2.86545e-11 0 0)
(5.03386e-12 0 0)
(5.01631e-11 0 0)
(4.49622e-11 0 0)
(1.92527e-12 0 0)
(3.0617e-11 0 0)
(5.61546e-11 0 0)
(7.023e-11 0 0)
(8.15754e-11 0 0)
(6.23526e-11 0 0)
(3.42135e-11 0 0)
(-6.56628e-12 0 0)
(-4.5993e-11 0 0)
(-4.55455e-11 0 0)
(-1.72492e-11 0 0)
(-1.31036e-11 0 0)
(-2.69373e-11 0 0)
(-8.61973e-12 0 0)
(2.56454e-11 0 0)
(2.48368e-11 0 0)
(8.563e-11 0 0)
(5.56218e-11 0 0)
(8.28578e-12 0 0)
(-2.84803e-11 0 0)
(-5.65593e-11 0 0)
(-6.83812e-11 0 0)
(-8.27543e-11 0 0)
(-1.02576e-10 0 0)
(-1.22466e-10 0 0)
(-6.26361e-11 0 0)
(-4.49322e-12 0 0)
(1.43948e-11 0 0)
(4.50228e-11 0 0)
(1.03011e-10 0 0)
(1.11405e-10 0 0)
(-1.88346e-12 0 0)
(-3.64197e-11 0 0)
(9.30221e-12 0 0)
(-2.34132e-11 0 0)
(1.86404e-11 0 0)
(3.40287e-11 0 0)
(9.1932e-12 0 0)
(-1.2499e-11 0 0)
(9.9461e-12 0 0)
(-1.91597e-13 0 0)
(7.18691e-12 0 0)
(1.89711e-12 0 0)
(-2.6013e-11 0 0)
(-2.72837e-11 0 0)
(-2.58501e-11 0 0)
(2.83325e-11 0 0)
(5.28956e-12 0 0)
(-6.17279e-12 0 0)
(5.31775e-11 0 0)
(4.29005e-11 0 0)
(-2.72177e-11 0 0)
(-2.42232e-11 0 0)
(2.44051e-11 0 0)
(-4.19514e-11 0 0)
(-1.04731e-10 0 0)
(-5.78893e-11 0 0)
(-6.58482e-11 0 0)
(-4.92182e-11 0 0)
(-2.12817e-11 0 0)
(-1.54303e-11 0 0)
(-1.89438e-11 0 0)
(-6.22915e-11 0 0)
(-9.59923e-11 0 0)
(-9.08473e-11 0 0)
(-6.30755e-11 0 0)
(-1.96354e-11 0 0)
(-3.23892e-11 0 0)
(-4.99713e-11 0 0)
(-3.10544e-11 0 0)
(5.54429e-11 0 0)
(1.55641e-10 0 0)
(1.61682e-10 0 0)
(1.3886e-10 0 0)
(1.66313e-10 0 0)
(7.35856e-11 0 0)
(-2.39669e-11 0 0)
(-6.015e-11 0 0)
(-8.37753e-11 0 0)
(-5.0431e-11 0 0)
(-3.34444e-13 0 0)
(-2.1455e-11 0 0)
(6.07006e-11 0 0)
(9.85156e-11 0 0)
(8.19859e-11 0 0)
(-4.75937e-12 0 0)
(-4.19686e-11 0 0)
(-6.66865e-11 0 0)
(-8.05368e-11 0 0)
(-4.33213e-11 0 0)
(-1.04732e-12 0 0)
(2.22559e-11 0 0)
(2.43545e-11 0 0)
(1.24759e-11 0 0)
(-2.07969e-11 0 0)
(1.84904e-11 0 0)
(1.94579e-11 0 0)
(-6.56049e-11 0 0)
(-1.07839e-10 0 0)
(-6.9146e-12 0 0)
(3.0544e-11 0 0)
(2.08741e-11 0 0)
(-1.3987e-11 0 0)
(3.16462e-11 0 0)
(2.55702e-11 0 0)
(1.52644e-11 0 0)
(1.57314e-11 0 0)
(-7.02414e-12 0 0)
(-1.62195e-11 0 0)
(-4.12629e-11 0 0)
(-2.74177e-11 0 0)
(-9.81227e-12 0 0)
(1.5996e-11 0 0)
(3.74975e-11 0 0)
(4.41178e-11 0 0)
(1.39665e-10 0 0)
(1.70326e-10 0 0)
(1.15743e-10 0 0)
(2.31931e-11 0 0)
(-4.39192e-11 0 0)
(-5.63701e-11 0 0)
(-3.53522e-11 0 0)
(-3.8878e-11 0 0)
(-3.37545e-11 0 0)
(1.82695e-12 0 0)
(4.13003e-11 0 0)
(-9.57408e-13 0 0)
(1.22877e-11 0 0)
(3.55168e-12 0 0)
(-5.34895e-11 0 0)
(-6.4946e-11 0 0)
(-1.03209e-11 0 0)
(7.99343e-11 0 0)
(1.00446e-10 0 0)
(5.79766e-12 0 0)
(-6.98734e-11 0 0)
(-7.29163e-11 0 0)
(-4.64366e-11 0 0)
(-2.00666e-11 0 0)
(1.9616e-11 0 0)
(6.90301e-11 0 0)
(8.38425e-11 0 0)
(7.64619e-11 0 0)
(1.0397e-10 0 0)
(9.61533e-11 0 0)
(4.91552e-11 0 0)
(1.96125e-11 0 0)
(1.63173e-11 0 0)
)
;

boundaryField
{
    left
    {
        type            noSlip;
    }
    right
    {
        type            noSlip;
    }
    empty
    {
        type            empty;
    }
}


// ************************************************************************* //
