/*--------------------------------*- C++ -*----------------------------------*\
| =========                 |                                                 |
| \\      /  F ield         | OpenFOAM: The Open Source CFD Toolbox           |
|  \\    /   O peration     | Version:  2106                                  |
|   \\  /    A nd           | Website:  www.openfoam.com                      |
|    \\/     M anipulation  |                                                 |
\*---------------------------------------------------------------------------*/
FoamFile
{
    version     2.0;
    format      ascii;
    arch        "LSB;label=32;scalar=64";
    class       surfaceScalarField;
    location    "0.25";
    object      phi;
}
// * * * * * * * * * * * * * * * * * * * * * * * * * * * * * * * * * * * * * //

dimensions      [0 3 -1 0 0 0 0];

oriented        oriented;

internalField   nonuniform List<scalar> 
22100
(
3.38461202177e-05
1.61538797701e-05
2.24572093793e-05
1.13889104749e-05
1.6258552172e-05
6.19865688387e-06
1.27977748923e-05
3.46077698279e-06
1.08046407034e-05
1.99313387647e-06
9.60458737141e-06
1.20005302785e-06
8.85131930796e-06
7.53267761675e-07
8.36435018758e-06
4.869688145e-07
8.04433200192e-06
3.20017879341e-07
7.83283690418e-06
2.11494794038e-07
7.69339343681e-06
1.39443165801e-07
7.60223624079e-06
9.11568949654e-08
7.54347314267e-06
5.87627999327e-08
7.50633590251e-06
3.71369459476e-08
7.48349605828e-06
2.28395553571e-08
7.46997488966e-06
1.35208863775e-08
7.46240990997e-06
7.5647009724e-09
7.45854151875e-06
3.86811673273e-09
7.45682212884e-06
1.7191217518e-09
7.45641513222e-06
4.06729097874e-10
7.45676457789e-06
-3.49706254773e-10
7.45745038145e-06
-6.86060288791e-10
7.45820835643e-06
-7.58228016541e-10
7.45893330487e-06
-7.25196125993e-10
7.45957727499e-06
-6.44212608741e-10
7.4601208887e-06
-5.43850319868e-10
7.46056270563e-06
-4.42045862822e-10
7.46091118319e-06
-3.4869864588e-10
7.46117922963e-06
-2.68259987711e-10
7.46138093316e-06
-2.01909325728e-10
7.46152966779e-06
-1.48934974775e-10
7.46163714056e-06
-1.07667068625e-10
7.46171308018e-06
-7.61271701769e-11
7.4617656153e-06
-5.27174935045e-11
7.46179869647e-06
-3.32591179875e-11
7.46181731572e-06
-1.87890865497e-11
7.46182623811e-06
-9.08513546257e-12
7.4618289003e-06
-2.81839256855e-12
7.46182724576e-06
1.50396422213e-12
7.46182241343e-06
4.68805523197e-12
7.46181533901e-06
6.93744594063e-12
7.46180662927e-06
8.58175280229e-12
7.46179665262e-06
9.85827470504e-12
7.46178558105e-06
1.09629383958e-11
7.46177341756e-06
1.20637616641e-11
7.46176003786e-06
1.32873910144e-11
7.461745218e-06
1.47363891e-11
7.46172863713e-06
1.65056162753e-11
7.46170986826e-06
1.87002203481e-11
7.46168837626e-06
2.14309505103e-11
7.46166355452e-06
2.47706857883e-11
7.46163470266e-06
2.88101907308e-11
7.46160102919e-06
3.36407842425e-11
7.46156167288e-06
3.93321094638e-11
7.46151575414e-06
4.59029264912e-11
7.46146244758e-06
5.33000922534e-11
7.46140103526e-06
6.14160589816e-11
7.4613313624e-06
6.96861091733e-11
7.46125411588e-06
7.72685540713e-11
7.46117168965e-06
8.24565369824e-11
7.46109023659e-06
8.14898797613e-11
7.46102203258e-06
6.82346815264e-11
7.4609748859e-06
4.71657416458e-11
7.46096778664e-06
7.09030187433e-12
7.46103660808e-06
-6.88614564405e-11
7.46123954173e-06
-2.03017795725e-10
7.46167104367e-06
-4.31637353279e-10
7.46248118836e-06
-8.10330135786e-10
7.46390532633e-06
-1.42437546322e-09
7.46629920058e-06
-2.39416053311e-09
7.47011286852e-06
-3.81399597347e-09
7.4765569844e-06
-6.4444777886e-09
7.48732598282e-06
-1.07693928065e-08
7.5055039555e-06
-1.8178409926e-08
7.53870274719e-06
-3.31992693628e-08
7.60795492756e-06
-6.92526621341e-08
7.77471834045e-06
-1.66763876643e-07
8.2299218031e-06
-4.5520400382e-07
9.69854969989e-06
-1.46862868072e-06
-5.45575083695e-06
1.51543000915e-05
5.02175946621e-05
1.59362847216e-05
4.42441110024e-05
1.7362393525e-05
3.77795004775e-05
1.26632668283e-05
3.26461426124e-05
8.59413429549e-06
2.89380900924e-05
5.70118583531e-06
2.63596192866e-05
3.77852327316e-06
2.45875144703e-05
2.52537201825e-06
2.33734720086e-05
1.70101071675e-06
2.25435225644e-05
1.1499667669e-06
2.19782134954e-05
7.76803308845e-07
2.15955105962e-05
5.22145514853e-07
2.13387336708e-05
3.47933273715e-07
2.11684917965e-05
2.29004131048e-07
2.10573338434e-05
1.48294360072e-07
2.0986145596e-05
9.40272705073e-08
2.09416728933e-05
5.79930606022e-08
2.09147907636e-05
3.44463068757e-08
2.08992913512e-05
1.93670162705e-08
2.08910672992e-05
9.94266184808e-09
2.0887266704e-05
4.20682492937e-09
2.08861973946e-05
7.19112343382e-10
2.08864427697e-05
-9.31916376691e-10
2.08873138642e-05
-1.62979040022e-09
2.08884530234e-05
-1.86481000542e-09
2.0889626016e-05
-1.81764703252e-09
2.0890708678e-05
-1.62694037642e-09
2.08916459538e-05
-1.37973557957e-09
2.08924231717e-05
-1.12631659599e-09
2.08930480965e-05
-8.93572299065e-10
2.08935399464e-05
-6.94132798771e-10
2.08939234937e-05
-5.32843960619e-10
2.08942247503e-05
-4.09275991038e-10
2.08944354484e-05
-2.87165033048e-10
2.0894582241e-05
-1.99836094891e-10
2.08946823517e-05
-1.33684789009e-10
2.08947474779e-05
-8.42194156549e-11
2.08947877886e-05
-4.96874728835e-11
2.08948114552e-05
-2.67627704873e-11
2.08948232905e-05
-1.05957974799e-11
2.08948262284e-05
1.49808522757e-12
2.08948226849e-05
1.02439941448e-11
2.08948143245e-05
1.6723145129e-11
2.08948022862e-05
2.16955939349e-11
2.08947872809e-05
2.57832028118e-11
2.08947696762e-05
2.95001823851e-11
2.08947496057e-05
3.32046582926e-11
2.08947270499e-05
3.71534342067e-11
2.0894701882e-05
4.15488719206e-11
2.08946738909e-05
4.65837625502e-11
2.08946428061e-05
5.24258078317e-11
2.08946084048e-05
5.91009588975e-11
2.08945705328e-05
6.66297432254e-11
2.08945291884e-05
7.49493301148e-11
2.08944846632e-05
8.38372420803e-11
2.08944377878e-05
9.27750687215e-11
2.0894390339e-05
1.00763913478e-10
2.08943455088e-05
1.0627985894e-10
2.08943091844e-05
1.06061417683e-10
2.08942908007e-05
9.57159884173e-11
2.08943054731e-05
6.78479720053e-11
2.08943797186e-05
7.29780584953e-12
2.08945626739e-05
-1.14693957512e-10
2.08949224722e-05
-3.12646685282e-10
2.08955772415e-05
-6.47757168006e-10
2.08966368909e-05
-1.12866111945e-09
2.08982761129e-05
-1.84247520223e-09
2.09008529811e-05
-3.0088307037e-09
2.09049156386e-05
-4.87340237592e-09
2.09113337166e-05
-7.84295424886e-09
2.09215318156e-05
-1.25928377584e-08
2.0938001778e-05
-2.02846016153e-08
2.09648934526e-05
-3.33368527686e-08
2.10091516068e-05
-5.50283054649e-08
2.10839613299e-05
-9.29889327651e-08
2.12152723346e-05
-1.64511047895e-07
2.14560416521e-05
-3.10022644222e-07
2.19142349943e-05
-6.24957702712e-07
2.28020182804e-05
-1.34298734921e-06
2.44477132887e-05
-3.11432320833e-06
-7.0452097543e-06
2.60371681524e-05
5.35171050896e-05
1.24191793022e-05
5.29349676152e-05
1.79445304611e-05
4.96538389725e-05
1.59443949707e-05
4.58401798598e-05
1.2407792928e-05
4.24400903849e-05
9.10127481935e-06
3.97291699499e-05
6.48944322093e-06
3.76873029986e-05
4.56723848398e-06
3.61976596961e-05
3.19065353182e-06
3.51326085898e-05
2.21501738745e-06
3.43823630706e-05
1.52704834506e-06
3.38606216274e-05
1.04388647963e-06
3.35023409327e-05
7.0621349548e-07
3.32595955858e-05
4.71749010479e-07
3.30975848464e-05
3.10304640034e-07
3.29913283471e-05
2.00283317538e-07
3.29230860504e-05
1.26234909088e-07
3.28803976857e-05
7.71342352699e-08
3.28546121301e-05
4.51521352393e-08
3.28397846218e-05
2.47697450421e-08
3.28318576981e-05
1.21333278217e-08
3.28279878014e-05
4.58859319501e-09
3.28269887595e-05
6.67185732889e-11
3.28271691251e-05
-1.81055417855e-09
3.28280171316e-05
-2.71320517925e-09
3.28291324957e-05
-2.93338839985e-09
3.28302793328e-05
-2.77414294826e-09
3.28313348935e-05
-2.43565038223e-09
3.28322448721e-05
-2.03663756084e-09
3.28329944183e-05
-1.64345119081e-09
3.2833589619e-05
-1.28965558985e-09
3.28340454207e-05
-9.88958294324e-10
3.28343799163e-05
-7.44074093405e-10
3.28346458005e-05
-5.5334225673e-10
3.28348616522e-05
-4.15971641382e-10
3.28350083759e-05
-2.80681284027e-10
3.28351071224e-05
-1.83227931436e-10
3.28351725121e-05
-1.15330714386e-10
3.28352139723e-05
-6.84657427843e-11
3.2835238379e-05
-3.52321053776e-11
3.28352496963e-05
-1.00352665747e-11
3.28352514816e-05
8.25580344958e-12
3.28352462293e-05
2.17861966223e-11
3.28352357613e-05
3.19895622599e-11
3.28352213e-05
4.00853668986e-11
3.28352035956e-05
4.70586332568e-11
3.28351831095e-05
5.35550779795e-11
3.28351601365e-05
6.00026200442e-11
3.28351348703e-05
6.67043999757e-11
3.28351073891e-05
7.39687491918e-11
3.28350777137e-05
8.20216863989e-11
3.2835046146e-05
9.06042929215e-11
3.28350132628e-05
9.9461729376e-11
3.28349800649e-05
1.08109455263e-10
3.2834948286e-05
1.15593388626e-10
3.28349208905e-05
1.20164074723e-10
3.2834902618e-05
1.19045388814e-10
3.28349002273e-05
1.08695144835e-10
3.28349250684e-05
8.12593518124e-11
3.28349944057e-05
2.64249163072e-11
3.28351377379e-05
-7.54325579176e-11
3.2835406335e-05
-2.61256489876e-10
3.28358885343e-05
-5.96873892258e-10
3.28366012629e-05
-1.02539011439e-09
3.28376369927e-05
-1.68355513892e-09
3.28392524162e-05
-2.7442159389e-09
3.28418252557e-05
-4.41552489523e-09
3.28458592528e-05
-7.04311964269e-09
3.28521689033e-05
-1.1183427219e-08
3.28620676816e-05
-1.77421868274e-08
3.2877721147e-05
-2.82468251737e-08
3.29027921519e-05
-4.53561831273e-08
3.29426362054e-05
-7.31815425954e-08
3.30070908055e-05
-1.19483613807e-07
3.31131540178e-05
-1.99052903173e-07
3.32898682378e-05
-3.41226022347e-07
3.35854925668e-05
-6.05647724434e-07
3.40712068597e-05
-1.11067284723e-06
3.48133114512e-05
-2.0850926279e-06
3.56757836676e-05
-3.97679326097e-06
-7.11540957989e-06
3.57459922507e-05
5.35105662027e-05
8.90861279124e-06
5.55742215027e-05
1.5880874633e-05
5.52424813392e-05
1.62761346433e-05
5.35977843607e-05
1.40524894384e-05
5.1541845654e-05
1.11572130453e-05
4.95802774362e-05
8.45101096116e-06
4.79243479633e-05
6.22316748242e-06
4.66181356355e-05
4.49686538312e-06
4.56304623826e-05
3.20269016447e-06
4.49051129893e-05
2.2523972654e-06
4.43840853615e-05
1.56491363682e-06
4.40166887781e-05
1.07360961015e-06
4.37619618577e-05
7.2647546682e-07
4.35882628323e-05
4.8400320877e-07
4.34718630605e-05
3.16682635902e-07
4.3395352588e-05
2.02744938061e-07
4.33461819156e-05
1.26304463816e-07
4.33154439206e-05
7.58896972848e-08
4.32969071827e-05
4.33060560082e-08
4.32862807486e-05
2.27593413088e-08
4.32806775477e-05
1.01913826816e-08
4.32778695295e-05
2.87433401558e-09
4.32770413952e-05
-9.82813917024e-10
4.32772589583e-05
-2.93115213219e-09
4.32779461763e-05
-3.62097906999e-09
4.32788089182e-05
-3.63724646367e-09
4.32796814121e-05
-3.3084948657e-09
4.32804785402e-05
-2.83410521522e-09
4.32811639498e-05
-2.32918988701e-09
4.3281729426e-05
-1.85545006153e-09
4.32821818026e-05
-1.44164413549e-09
4.32825337785e-05
-1.09634932423e-09
4.32827951092e-05
-8.14960259556e-10
4.32829700827e-05
-5.91223308358e-10
4.32831027205e-05
-4.13589169939e-10
4.32831877269e-05
-2.68493599312e-10
4.32832413795e-05
-1.69230011002e-10
4.32832808651e-05
-1.081847653e-10
4.3283304979e-05
-5.95681531041e-11
4.32833167193e-05
-2.19879745694e-11
4.32833195024e-05
5.27183064333e-12
4.32833152867e-05
2.58149838905e-11
4.32833057779e-05
4.13260318211e-11
4.32832921307e-05
5.35734196372e-11
4.32832749905e-05
6.40508413227e-11
4.32832547884e-05
7.36213199453e-11
4.32832318565e-05
8.28114340079e-11
4.32832064825e-05
9.19713336387e-11
4.32831790263e-05
1.0133205725e-10
4.3283150052e-05
1.10919475019e-10
4.32831201814e-05
1.20412614321e-10
4.32830903718e-05
1.29223604391e-10
4.32830620829e-05
1.36365608658e-10
4.32830374202e-05
1.40238491705e-10
4.32830193084e-05
1.38273939027e-10
4.32830120376e-05
1.26330860157e-10
4.3283023453e-05
9.73094658407e-11
4.32830654702e-05
3.92836741544e-11
4.32831572374e-05
-6.52915508918e-11
4.32833167701e-05
-2.34912305554e-10
4.32835503181e-05
-4.94757500709e-10
4.32839885692e-05
-1.03509252152e-09
4.32847514693e-05
-1.78829406414e-09
4.32859960158e-05
-2.92814997847e-09
4.32879290142e-05
-4.67732862352e-09
4.32908997691e-05
-7.38647315962e-09
4.32954677038e-05
-1.16113324503e-08
4.33025115049e-05
-1.82275947839e-08
4.33134137161e-05
-2.8644844946e-08
4.33303333538e-05
-4.51669713938e-08
4.33565818658e-05
-7.16052540038e-08
4.33977337745e-05
-1.14334068701e-07
4.34626478457e-05
-1.84398362624e-07
4.35650615964e-05
-3.01467356811e-07
4.37249522176e-05
-5.01117323936e-07
4.39669518938e-05
-8.47648077444e-07
4.43077756566e-05
-1.45149752638e-06
4.47087665368e-05
-2.48608521316e-06
4.49289681999e-05
-4.19699700496e-06
-6.58699984624e-06
4.44005627003e-05
5.2735137731e-05
6.1734747614e-06
5.57309336798e-05
1.2885078161e-05
5.73114730502e-05
1.46955947859e-05
5.76109901137e-05
1.37529719102e-05
5.71335205151e-05
1.16346821668e-05
5.63194655975e-05
9.2650654039e-06
5.54489850633e-05
7.09364754396e-06
5.46629741585e-05
5.28287581504e-06
5.40136782657e-05
3.85198558585e-06
5.35061466168e-05
2.75992844719e-06
5.31242503995e-05
1.94680939037e-06
5.28449805766e-05
1.35287897172e-06
5.26454340752e-05
9.26021512597e-07
5.25057095956e-05
6.23727237698e-07
5.24097146098e-05
4.12677177374e-07
5.2345008398e-05
2.67450710329e-07
5.23022703844e-05
1.69042045046e-07
5.22746830332e-05
1.03476618943e-07
5.22573582939e-05
6.06303716802e-08
5.22468493931e-05
3.32678268327e-08
5.22407494376e-05
1.62909310857e-08
5.22374402566e-05
6.18311673029e-09
5.22359412141e-05
5.15839954088e-10
5.22354328306e-05
-2.42314707326e-09
5.22354972987e-05
-3.68581511637e-09
5.22358422405e-05
-3.98254538619e-09
5.22362959435e-05
-3.76254362927e-09
5.22367617726e-05
-3.30026977781e-09
5.22371886287e-05
-2.75637209485e-09
5.22375537923e-05
-2.22092782662e-09
5.22378505646e-05
-1.73871995831e-09
5.22380817347e-05
-1.327815213e-09
5.22382575901e-05
-9.91100661199e-10
5.22383900424e-05
-7.23948768498e-10
5.22384899861e-05
-5.1379445214e-10
5.2238574203e-05
-3.52962950971e-10
5.2238639352e-05
-2.34623410898e-10
5.22386813094e-05
-1.50375766817e-10
5.22387137292e-05
-9.22093175839e-11
5.22387288303e-05
-3.72995639677e-11
5.2238733767e-05
1.35732833403e-13
5.22387311128e-05
2.82829006667e-11
5.2238722815e-05
4.94505107734e-11
5.22387102014e-05
6.60256776132e-11
5.22386941381e-05
7.99648043784e-11
5.22386752006e-05
9.24209167714e-11
5.22386539013e-05
1.03984999314e-10
5.22386310461e-05
1.14717293335e-10
5.22386070077e-05
1.2527629457e-10
5.22385804103e-05
1.37438107126e-10
5.22385528276e-05
1.47932620761e-10
5.22385253344e-05
1.56670626222e-10
5.22384994612e-05
1.62209160242e-10
5.22384776443e-05
1.62041416794e-10
5.22384645358e-05
1.51384470164e-10
5.22384721708e-05
1.18711394947e-10
5.22385009337e-05
6.85730822986e-11
5.22385730751e-05
-3.28160425573e-11
5.22386903386e-05
-1.82507775843e-10
5.22388785051e-05
-4.23025474576e-10
5.22392125966e-05
-8.28802202672e-10
5.22397225289e-05
-1.54499039524e-09
5.22404863967e-05
-2.55216190367e-09
5.22416361012e-05
-4.07790310475e-09
5.22433745507e-05
-6.41589579446e-09
5.22460028671e-05
-1.00149873349e-08
5.22499726937e-05
-1.55814464695e-08
5.22559749489e-05
-2.42302302417e-08
5.22650684828e-05
-3.77388405742e-08
5.22788713089e-05
-5.89703223424e-08
5.22998430054e-05
-9.25775341022e-08
5.2331702285e-05
-1.4619399465e-07
5.23797985068e-05
-2.3249527483e-07
5.24510684396e-05
-3.72737965598e-07
5.25523926386e-05
-6.02442100489e-07
5.2684339595e-05
-9.79595429238e-07
5.28247069864e-05
-1.59186523098e-06
5.28920059455e-05
-2.55338475035e-06
5.2673671827e-05
-3.97866517711e-06
-5.77795175721e-06
5.18646257773e-05
5.19834861927e-05
4.18998826979e-06
5.50586631981e-05
9.80990063214e-06
5.76386119626e-05
1.21156455342e-05
5.93259014565e-05
1.20656819502e-05
6.0228013026e-05
1.073257012e-05
6.0592923745e-05
8.90015421025e-06
6.0648280198e-05
7.03829061664e-06
6.05531852669e-05
5.37797027026e-06
6.04029502179e-05
4.00222016078e-06
6.02479092391e-05
2.91496895567e-06
6.011078324e-05
2.08393492198e-06
5.99990232517e-05
1.46463849657e-06
5.99125076166e-05
1.01253668896e-06
5.98479152675e-05
6.88319129417e-07
5.98010112477e-05
4.59580748409e-07
5.97677261464e-05
3.00735370457e-07
5.97445843423e-05
1.92183413107e-07
5.97288053507e-05
1.19255180125e-07
5.97182567604e-05
7.117853821e-08
5.97113501337e-05
4.0174037024e-08
5.97069303582e-05
2.07102976614e-08
5.97041960456e-05
8.91702952803e-09
5.97025866037e-05
2.12489200091e-09
5.9701681667e-05
-1.51859023516e-09
5.97012229725e-05
-3.2274899042e-09
5.97010330557e-05
-3.79298724548e-09
5.97009963833e-05
-3.72621889192e-09
5.97010402953e-05
-3.34451890471e-09
5.97011210703e-05
-2.83747420676e-09
5.97012130398e-05
-2.31321458759e-09
5.97013023262e-05
-1.82831213224e-09
5.97013823125e-05
-1.40809776335e-09
5.97014515759e-05
-1.06065047212e-09
5.97015107189e-05
-7.83367666632e-10
5.97015605476e-05
-5.63887168766e-10
5.97015999516e-05
-3.92621227885e-10
5.97016273632e-05
-2.62280329864e-10
5.97016422989e-05
-1.65546249401e-10
5.97016403218e-05
-9.04550727452e-11
5.97016319931e-05
-2.91820076564e-11
5.97016251253e-05
6.80466006709e-12
5.97016156001e-05
3.76217517474e-11
5.9701604973e-05
5.99031966539e-11
5.97015931329e-05
7.77027335148e-11
5.97015790272e-05
9.39181574407e-11
5.97015624888e-05
1.08818664276e-10
5.97015435437e-05
1.22803381493e-10
5.97015220602e-05
1.36090001891e-10
5.97014985767e-05
1.48666363471e-10
5.97014757017e-05
1.60236840332e-10
5.97014534899e-05
1.70085756459e-10
5.97014331964e-05
1.76922016694e-10
5.97014165319e-05
1.78847851949e-10
5.97014052427e-05
1.73322201656e-10
5.97013992535e-05
1.5737985209e-10
5.97013893554e-05
1.28627741337e-10
5.9701391718e-05
6.62376946791e-11
5.97014028118e-05
-4.38710047924e-11
5.97014776576e-05
-2.57303859635e-10
5.97016604787e-05
-6.05788667744e-10
5.97019550656e-05
-1.12333364346e-09
5.9702335006e-05
-1.92488872134e-09
5.97029040354e-05
-3.12117987935e-09
5.97037447856e-05
-4.91869837781e-09
5.970497073e-05
-7.64195803368e-09
5.97067463284e-05
-1.17907873945e-08
5.97093090446e-05
-1.81444588747e-08
5.97130020826e-05
-2.79236591846e-08
5.97183142133e-05
-4.30514406097e-08
5.97259253749e-05
-6.65820148876e-08
5.97367367586e-05
-1.03389513497e-07
5.97518097284e-05
-1.61267633265e-07
5.97719811987e-05
-2.52667470069e-07
5.97966594728e-05
-3.97416972715e-07
5.98206870837e-05
-6.26470369946e-07
5.9827183105e-05
-9.8609198519e-07
5.97740845173e-05
-1.53876702783e-06
5.95734037225e-05
-2.35270401893e-06
5.90671496324e-05
-3.47241278805e-06
-4.80555770863e-06
5.8094756381e-05
5.14373050907e-05
2.75268287749e-06
5.4265819793e-05
6.98138540565e-06
5.72496419768e-05
9.13182286131e-06
5.97900258615e-05
9.52529759807e-06
6.17201258653e-05
8.80246963724e-06
6.30883003237e-05
7.53197927724e-06
6.40167133947e-05
6.10987707194e-06
6.46292327033e-05
4.76545048615e-06
6.50257991755e-05
3.60565321455e-06
6.527907327e-05
2.66169438996e-06
6.5438967843e-05
1.92403988063e-06
6.55386842063e-05
1.36492167088e-06
6.55999222874e-05
9.51298150143e-07
6.56367366609e-05
6.51504306128e-07
6.56581873323e-05
4.38129629632e-07
6.567009514e-05
2.88827118559e-07
6.56761839783e-05
1.86094137461e-07
6.56788199002e-05
1.16618827828e-07
6.56794899687e-05
7.0508046575e-08
6.56791134075e-05
4.05501819029e-08
6.56782456695e-05
2.15776273235e-08
6.56772144223e-05
9.94787742696e-09
6.56762048512e-05
3.13407347232e-09
6.56752952552e-05
-6.09373731919e-10
6.56745262562e-05
-2.45885998433e-09
6.56738976008e-05
-3.16469126206e-09
6.5673398415e-05
-3.22738173443e-09
6.56730112316e-05
-2.95767498925e-09
6.56727170633e-05
-2.54363433166e-09
6.56724977458e-05
-2.09421491661e-09
6.56723371657e-05
-1.66804054184e-09
6.56722216501e-05
-1.29288073044e-09
6.56721390623e-05
-9.78351895623e-10
6.5672078786e-05
-7.2336872913e-10
6.56720350479e-05
-5.20412445023e-10
6.56720036128e-05
-3.61438104125e-10
6.56719783495e-05
-2.37258926816e-10
6.56719565886e-05
-1.44016666824e-10
6.56719414569e-05
-7.55447822293e-11
6.56719395407e-05
-2.74762354153e-11
6.56719378184e-05
8.32722752469e-12
6.56719302554e-05
4.49970282223e-11
6.56719199309e-05
7.00504607547e-11
6.56719071882e-05
9.02791993151e-11
6.56718928838e-05
1.08067325525e-10
6.56718770293e-05
1.24530349156e-10
6.56718594715e-05
1.40235848364e-10
6.56718401348e-05
1.55316542922e-10
6.56718196483e-05
1.69060203913e-10
6.56717999174e-05
1.79892844937e-10
6.56717798004e-05
1.90144481747e-10
6.5671759856e-05
1.96823785581e-10
6.56717411853e-05
1.97493216868e-10
6.56717256023e-05
1.88897051911e-10
6.5671716619e-05
1.66369204781e-10
6.56717215381e-05
1.23727675694e-10
6.56717296134e-05
5.81950733581e-11
6.56717546977e-05
-6.89135996794e-11
6.56718215742e-05
-3.24128457859e-10
6.56719152303e-05
-6.99381633306e-10
6.56720601231e-05
-1.26816965348e-09
6.56722626886e-05
-2.12741140873e-09
6.56725389922e-05
-3.39747300735e-09
6.56729052757e-05
-5.28502907067e-09
6.56733719766e-05
-8.1087781953e-09
6.56739360372e-05
-1.23550566328e-08
6.56745666471e-05
-1.8775378869e-08
6.5675177041e-05
-2.85344596554e-08
6.56755645599e-05
-4.34394414321e-08
6.56752998034e-05
-6.6317798532e-08
6.56735122683e-05
-1.01602577684e-07
6.56684631652e-05
-1.56219195518e-07
6.56566120392e-05
-2.40817070675e-07
6.5630821671e-05
-3.71627344137e-07
6.55769265295e-05
-5.7257588436e-07
6.54676671313e-05
-8.76833225004e-07
6.52538260801e-05
-1.32492652825e-06
6.48552619608e-05
-1.95413992498e-06
6.41593279885e-05
-2.77647995041e-06
-3.72175418868e-06
6.30755246149e-05
5.10850420784e-05
1.66764049622e-06
5.36118437769e-05
4.4545831847e-06
5.66873152234e-05
6.05635092536e-06
5.96894447786e-05
6.52316757556e-06
6.22997249172e-05
6.19218901849e-06
6.44136860139e-05
5.41801770528e-06
6.60471816959e-05
4.47638091717e-06
6.72686127886e-05
3.54401891972e-06
6.81598913861e-05
2.71437414499e-06
6.87977575667e-05
2.02382773961e-06
6.92467415508e-05
1.47505542982e-06
6.95579600206e-05
1.05370273873e-06
6.9770426362e-05
7.38831349094e-07
6.99131691282e-05
5.08761086304e-07
7.00073799848e-05
3.43918325621e-07
7.00682893439e-05
2.2791731712e-07
7.01066912109e-05
1.47691834217e-07
7.01301333815e-05
9.31762266378e-08
7.01438223916e-05
5.6818612348e-08
7.01512983882e-05
3.30737688784e-08
7.01549307659e-05
1.79448417258e-08
7.01562784488e-05
8.59979575858e-09
7.01563502393e-05
3.06189406509e-09
7.01557580982e-05
-1.76115640815e-11
7.01548971264e-05
-1.59825748448e-09
7.01539734184e-05
-2.24134342925e-09
7.01531046875e-05
-2.35899913672e-09
7.01523445901e-05
-2.19791784299e-09
7.01517103325e-05
-1.90970773633e-09
7.01511990618e-05
-1.58326199939e-09
7.01507978472e-05
-1.26713303355e-09
7.01504897348e-05
-9.85065537598e-10
7.01502570867e-05
-7.45991098486e-10
7.01500837382e-05
-5.50295857885e-10
7.01499566959e-05
-3.93631951959e-10
7.01498653091e-05
-2.70301681976e-10
7.01498024798e-05
-1.74670263682e-10
7.01497607517e-05
-1.02518425471e-10
7.01497320352e-05
-4.70480313843e-11
7.01497018628e-05
2.48682107546e-12
7.01496783372e-05
3.16531527875e-11
7.01496652013e-05
5.79439850272e-11
7.01496545511e-05
8.05213539857e-11
7.01496444921e-05
1.00168182234e-10
7.01496342743e-05
1.18127457524e-10
7.01496235177e-05
1.35142342594e-10
7.01496120874e-05
1.51539208894e-10
7.0149600012e-05
1.67281641857e-10
7.01495869804e-05
1.81999595862e-10
7.01495717142e-05
1.95086180068e-10
7.01495561681e-05
2.05634906567e-10
7.01495410914e-05
2.11861374236e-10
7.01495272387e-05
2.11323942061e-10
7.01495152466e-05
2.00880615384e-10
7.01495048476e-05
1.7677371555e-10
7.01494936466e-05
1.34947548852e-10
7.0149481468e-05
7.04079960525e-11
7.0149474091e-05
-6.14903270228e-11
7.01494788506e-05
-3.28831487918e-10
7.01494971994e-05
-7.17665862155e-10
7.0149515595e-05
-1.28650595699e-09
7.01495115254e-05
-2.12330001052e-09
7.01494576173e-05
-3.34356211832e-09
7.01493001649e-05
-5.12762920172e-09
7.01489395983e-05
-7.74833610394e-09
7.01481997894e-05
-1.16154631092e-08
7.01467784262e-05
-1.73543343934e-08
7.01441621854e-05
-2.59186340983e-08
7.01394739014e-05
-3.87516490829e-08
7.01312291454e-05
-5.80735929767e-08
7.01169367872e-05
-8.73108163886e-08
7.00924319242e-05
-1.31714978023e-07
7.0050612429e-05
-1.98998290648e-07
6.99794871995e-05
-3.00502832079e-07
6.98590624579e-05
-4.52151751731e-07
6.96568472817e-05
-6.74618639218e-07
6.93228513323e-05
-9.90931171182e-07
6.87873988399e-05
-1.41868754052e-06
6.79676979307e-05
-1.95677978673e-06
-2.55941833185e-06
6.68053619324e-05
5.08804129103e-05
7.87227283554e-07
5.31704654022e-05
2.16453017337e-06
5.62177484874e-05
3.00906735196e-06
5.94382680363e-05
3.30264756105e-06
6.24449673807e-05
3.18548919514e-06
6.50382503241e-05
2.82473428633e-06
6.71548634178e-05
2.35976734974e-06
6.88135614331e-05
1.88532043054e-06
7.00731669548e-05
1.45476815096e-06
7.10056634408e-05
1.09133078403e-06
7.16812592616e-05
7.99459144302e-07
7.2161418154e-05
5.73543383847e-07
7.2496598627e-05
4.0365041677e-07
7.27264747376e-05
2.78884521075e-07
7.28812732043e-05
1.89119410509e-07
7.29834625398e-05
1.25727539863e-07
7.30494059161e-05
8.17480214936e-08
7.3090807631e-05
5.17740808495e-08
7.31159011955e-05
3.17246238037e-08
7.31303853443e-05
1.8589204105e-08
7.31381397032e-05
1.01900755519e-08
7.31417597895e-05
4.97931168214e-09
7.31429471523e-05
1.87414318912e-09
7.31428004326e-05
1.28729646388e-10
7.31419768775e-05
-7.75071161341e-10
7.31408936541e-05
-1.15848095841e-09
7.31397784797e-05
-1.2441727238e-09
7.31387507601e-05
-1.17053413168e-09
7.31378629477e-05
-1.02222309215e-09
7.3137128956e-05
-8.49587206709e-10
7.31365414042e-05
-6.79885768059e-10
7.31360829019e-05
-5.26858228376e-10
7.31357325806e-05
-3.95955974388e-10
7.31354698124e-05
-2.87803975037e-10
7.31352762557e-05
-2.00340188853e-10
7.31351362806e-05
-1.30579940415e-10
7.31350366305e-05
-7.52617579954e-11
7.31349647627e-05
-3.08810622116e-11
7.31349114325e-05
6.06355136951e-12
7.31348814712e-05
3.22390367194e-11
7.31348581308e-05
5.47934180983e-11
7.3134841123e-05
7.47615406477e-11
7.3134828557e-05
9.29056876293e-11
7.31348186296e-05
1.09922035212e-10
7.31348100743e-05
1.2652226017e-10
7.31348020057e-05
1.43064594897e-10
7.31347938063e-05
1.59609437224e-10
7.3134785042e-05
1.75935301606e-10
7.31347754489e-05
1.91501001464e-10
7.31347649805e-05
2.05481890072e-10
7.31347536854e-05
2.16875611613e-10
7.31347416179e-05
2.23894581057e-10
7.31347288665e-05
2.24056011218e-10
7.31347156044e-05
2.14139702946e-10
7.31347022474e-05
1.90143430221e-10
7.31346895779e-05
1.47636915344e-10
7.31346759837e-05
8.40368102068e-11
7.31346506768e-05
-3.61360423167e-11
7.31346072748e-05
-2.85370064779e-10
7.3134538478e-05
-6.48805108813e-10
7.31344210301e-05
-1.16899964459e-09
7.31342113879e-05
-1.91362195915e-09
7.31338410389e-05
-2.97321767484e-09
7.31331945628e-05
-4.48121145987e-09
7.3132078301e-05
-6.63220390109e-09
7.31301691558e-05
-9.70653823771e-09
7.31269395518e-05
-1.41250533385e-08
7.31215320356e-05
-2.05115386645e-08
7.31125294943e-05
-2.9749607216e-08
7.30976232127e-05
-4.31678650068e-08
7.30731035036e-05
-6.27916922597e-08
7.30330570809e-05
-9.1669178666e-08
7.29679509773e-05
-1.33892878156e-07
7.2862739623e-05
-1.95292160776e-07
7.26942112752e-05
-2.83623991473e-07
7.24277922121e-05
-4.0820012497e-07
7.20150046713e-05
-5.78144219028e-07
7.13944718308e-05
-7.98154909439e-07
7.05003738272e-05
-1.06268229502e-06
-1.34675736101e-06
6.92877126276e-05
5.07871723173e-05
5.46647232478e-11
5.29516490801e-05
5.28927360029e-11
5.59606872234e-05
2.87217501538e-11
5.9263320221e-05
1.40995662281e-11
6.24488062867e-05
2.65396899839e-12
6.52735463049e-05
-6.20539484504e-12
6.76333252899e-05
-1.21066314072e-11
6.9518660299e-05
-1.50500735588e-11
7.09734434595e-05
-1.5479848657e-11
7.20647877696e-05
-1.39940690322e-11
7.28642576727e-05
-1.1223941501e-11
7.34378084191e-05
-7.82431573288e-12
7.38414628358e-05
-4.4557696721e-12
7.41203486695e-05
-1.76365555295e-12
7.4309467967e-05
-3.34386787544e-13
7.44351956336e-05
-5.68965309662e-13
7.45169459396e-05
-2.72104626555e-12
7.45687261349e-05
-6.54455393212e-12
7.46004617362e-05
-1.14003322881e-11
7.46190668323e-05
-1.63063438469e-11
7.46292766362e-05
-2.01336515487e-11
7.4634277339e-05
-2.17870939618e-11
7.46361718967e-05
-2.08014570964e-11
7.46363187038e-05
-1.84542469743e-11
7.46355591859e-05
-1.59186381689e-11
7.46344131087e-05
-1.27615511174e-11
7.46331777399e-05
-9.15131281779e-12
7.46320120314e-05
-5.16053251094e-12
7.46309897792e-05
-2.95819405158e-13
7.46301360729e-05
3.8015072819e-12
7.46294473983e-05
8.48305208019e-12
7.46289067611e-05
1.34836755112e-11
7.46284917629e-05
1.87582335352e-11
7.46281793151e-05
2.43702012182e-11
7.46279482078e-05
3.05029275806e-11
7.46277800948e-05
3.72801069922e-11
7.46276598093e-05
4.47827271556e-11
7.46275757046e-05
5.29934724916e-11
7.46275196104e-05
6.19376699693e-11
7.46274803715e-05
7.12673375983e-11
7.46274540205e-05
8.09419584296e-11
7.46274367089e-05
9.18803168937e-11
7.4627425445e-05
1.03985631324e-10
7.46274179977e-05
1.1719409127e-10
7.46274128327e-05
1.31524882704e-10
7.46274088814e-05
1.46870900132e-10
7.46274053921e-05
1.62972605181e-10
7.46274018225e-05
1.79396515921e-10
7.46273977428e-05
1.95489692606e-10
7.46273928009e-05
2.1034885797e-10
7.46273868152e-05
2.2280522852e-10
7.46273795619e-05
2.31110527249e-10
7.46273706655e-05
2.32932300084e-10
7.46273594719e-05
2.25327653389e-10
7.46273448455e-05
2.0478265261e-10
7.46273250495e-05
1.67457417316e-10
7.46272990277e-05
1.10098512484e-10
7.46272547833e-05
8.15813499429e-12
7.46271653862e-05
-1.95917916005e-10
7.46270285187e-05
-5.11881257354e-10
7.46268045276e-05
-9.44959501544e-10
7.46264323318e-05
-1.54140144252e-09
7.46258151889e-05
-2.35608558144e-09
7.46247959199e-05
-3.46200459763e-09
7.46231188997e-05
-4.95531728542e-09
7.46203658847e-05
-6.95374884241e-09
7.46158714435e-05
-9.63094324644e-09
7.46085748906e-05
-1.3215418713e-08
7.4596733627e-05
-1.79088618168e-08
7.45775427189e-05
-2.39775325788e-08
7.45465910894e-05
-3.18406570818e-08
7.44971239239e-05
-4.22026324001e-08
7.44183852552e-05
-5.51548844879e-08
7.42939494814e-05
-7.08570816567e-08
7.40993915012e-05
-8.90666048131e-08
7.37998192196e-05
-1.08628371583e-07
7.33484526314e-05
-1.2677819863e-07
7.26886380903e-05
-1.3834064402e-07
7.17620794772e-05
-1.36124047679e-07
-1.11618259649e-07
7.05269401609e-05
5.07871712819e-05
-7.87116918156e-07