/*--------------------------------*- C++ -*----------------------------------*\
| =========                 |                                                 |
| \\      /  F ield         | OpenFOAM: The Open Source CFD Toolbox           |
|  \\    /   O peration     | Version:  2106                                  |
|   \\  /    A nd           | Website:  www.openfoam.com                      |
|    \\/     M anipulation  |                                                 |
\*---------------------------------------------------------------------------*/
FoamFile
{
    version     2.0;
    format      ascii;
    arch        "LSB;label=32;scalar=64";
    class       volScalarField;
    location    "0.45";
    object      p;
}
// * * * * * * * * * * * * * * * * * * * * * * * * * * * * * * * * * * * * * //

dimensions      [0 2 -2 0 0 0 0];

internalField   nonuniform List<scalar> 
11200
(
150.10463957
147.176037711
146.062186526
145.534854717
145.167524188
144.87274474
144.611099633
144.362559705
144.118039814
143.872970425
143.624654459
143.371337204
143.111786546
142.845066746
142.570410786
142.28714516
141.994644057
141.69230158
141.379519032
141.05570835
140.720245702
140.372482033
140.011758856
139.637408187
139.248744406
138.845066254
138.425657659
137.989788364
137.536714593
137.065679625
136.575914346
136.066637775
135.537057273
134.986368829
134.413757762
133.818399903
133.199461421
132.556099035
131.887460259
131.192683801
130.470899945
129.721230738
128.942790239
128.134684693
127.296012521
126.425864051
125.523321011
124.587455707
123.61732987
122.611993053
121.570480551
120.491810616
119.374980843
118.218963429
117.022699015
115.785088759
114.504984314
113.181175214
111.812372965
110.397191395
108.934121694
107.421500737
105.857471124
104.239932634
102.566475738
100.834295388
99.040081226
97.1798731527
95.2488667815
93.241146992
91.1493243632
88.9640391842
86.6730925402
84.2602982275
81.7035705381
78.9712493704
76.015734463
72.7644480147
69.063657871
64.3003445573
148.311597724
146.953423512
146.162451708
145.662436811
145.271447738
144.947564064
144.663041488
144.398437585
144.142947985
143.89042441
143.637039607
143.380279949
143.118408265
142.850147917
142.574498312
142.290624549
141.99778925
141.695309692
141.38252757
141.058781032
140.72341988
140.375768536
140.015183112
139.640995371
139.252509264
138.849017821
138.429802151
137.994130178
137.541256831
137.070424389
136.580862724
136.07178929
135.542409612
134.991923284
134.41951758
133.824368389
133.205641645
132.562494011
131.894073015
131.199517421
130.477957636
129.728515893
128.950306557
128.14243633
127.30400424
126.434101376
125.531810423
124.596204892
123.626348015
122.621291226
121.580072167
120.501712045
119.385212152
118.229549304
117.033669863
115.796482071
114.516846328
113.193563057
111.825357221
110.410859526
108.94858266
107.436891103
105.873961102
104.257730058
102.585830649
100.855522818
99.0635909306
97.2061975571
95.2787030434
93.2754222807
91.1892860545
89.0113377949
86.7300301007
84.3302272556
81.7915343774
79.0854433697
76.1711561468
72.9908390259
69.4417034896
65.3289017849
147.316407479
146.662206963
146.109850912
145.672232591
145.300607958
144.978505089
144.689403798
144.419168289
144.15870369
143.90222126
143.645836065
143.386866356
143.123399956
142.854009717
142.577574407
142.293165331
141.999972884
141.697258576
141.384324214
141.060493007
140.725102865
140.37751406
140.01698247
139.642854299
139.254437418
138.851022305
138.431887773
137.996300655
137.543515568
137.072775006
136.5833097
136.074339414
135.545073002
134.99470296
134.422411393
133.827376711
133.20876596
132.565736305
131.897436103
131.203004938
130.481574056
129.732266582
128.954197994
128.146476337
127.308202239
126.438468711
125.536360772
124.60095477
123.631317391
122.626504317
121.585558453
120.507507479
119.391360615
118.236104382
117.040696994
115.804061159
114.525074981
113.202560748
111.83527035
110.421867651
108.960905446
107.450796527
105.889776921
104.275878906
102.606865264
100.880142023
99.0926677597
97.2408439727
95.3203563056
93.3259658796
91.2512228235
89.0880642374
86.8263954584
84.4533010689
81.9520608006
79.300815246
76.4715917728
73.432776435
70.1483933659
66.5954253339
146.766646305
146.403264865
146.003366487
145.634375365
145.296757571
144.988653568
144.70328825
144.43258205
144.170207741
143.911538471
143.653156258
143.392529507
143.12775825
142.857375039
142.580203648
142.295261491
142.001692279
141.698719926
141.385617407
141.061684863
140.726231324
140.378566515
140.018049088
139.643955783
139.255575846
138.852201639
138.433111723
137.997571686
137.544835004
137.074143146
136.584725681
136.075800526
135.546574864
134.996246809
134.424006363
133.82902809
133.210480031
132.567520174
131.899295752
131.204946825
130.483605399
129.73439558
128.956434339
128.148831631
127.310690451
126.441106715
125.539168996
124.603957974
123.634545631
122.629994116
121.58935417
120.511663042
119.395941703
118.241191068
117.046387052
115.810474241
114.532357813
113.210893279
111.844873481
110.433012634
108.973929298
107.466124425
105.907938573
104.297511954
102.63274367
100.91123543
99.1302121531
97.2864216922
95.3760107189
93.394369056
91.3359394808
89.1939925104
86.9602967975
84.6248110412
82.1754470467
79.5981074097
76.8780477722
74.0055621261
70.984249682
67.8512911376
146.432598404
146.200802819
145.899390037
145.588412215
145.283571475
144.991546368
144.712568671
144.443440245
144.180477631
143.920390815
143.66041943
143.398326006
143.132317887
142.860945827
142.583012995
142.297502364
142.003521344
141.70026083
141.386965609
141.06291313
140.727398476
140.379725224
140.019196896
139.645102795
139.256745756
138.853409524
138.434367418
137.998882587
137.546207136
137.075581958
136.586236706
136.077389944
135.548249399
134.998011669
134.425862938
133.830979652
133.212527539
132.569664509
131.901541182
131.207298077
130.486069563
129.736982101
128.959155177
128.15170157
127.313727552
126.444332915
125.542610845
124.607647577
123.638521795
122.634303798
121.594054893
120.516824983
119.401650519
118.247551243
117.053525843
115.818545989
114.541549633
113.22143286
111.857037842
110.447145227
108.990451266
107.485545265
105.930889525
104.324789712
102.665352474
100.950436135
99.1775933331
97.3440020433
95.4463825053
93.4809002576
91.4430583793
89.3275923054
87.1283939239
84.8385450998
82.4506256744
79.9576269707
77.3553531099
74.6482464073
71.8576667493
69.0343099018
146.229205968
146.053303812
145.812108703
145.544782234
145.267594135
144.990954242
144.719262531
144.452758589
144.189991015
143.928979854
143.667690244
143.404255086
143.137048785
142.864680355
142.585956775
142.299840305
142.005408945
141.701823401
141.388301036
141.064096097
140.728485149
140.380756214
140.02019977
139.646105999
139.257764324
138.854454064
138.43544587
138.000000822
137.547369483
137.076791478
136.58749548
136.078699228
135.549609939
134.999424411
134.427329472
133.832502614
133.214112493
132.571318856
131.903273087
131.209119364
130.487992878
129.73902093
128.961325099
128.154020882
127.316217809
126.44702029
125.545527121
124.610831347
123.64202008
122.638174074
121.598366326
120.521661667
119.407114682
118.253767181
117.060644953
115.826754264
114.551077053
113.232559986
111.87011334
110.462586013
109.008762899
107.507351661
105.956968632
104.35609797
102.703072848
100.996043659
99.2329396304
97.4114269916
95.5288656082
93.5822694796
91.5682823174
89.4831925665
87.3230342564
85.0838666309
82.762405202
80.3572985421
77.8716143832
75.3175066233
72.721922697
70.1319584319
146.106089234
145.95048153
145.744179445
145.507616823
145.252140848
144.988860298
144.72424577
144.460735713
144.198601037
143.937014023
143.674640685
143.410004473
143.141675494
142.868345063
142.588840899
142.302115391
142.007223658
141.703299965
141.38953638
141.065165028
140.729444042
140.381646902
140.021054664
139.646949716
139.258613198
138.855319453
138.436336267
138.000922499
137.548327168
137.077789034
136.588536387
136.079786982
135.550748321
135.00061797
134.428583962
133.833824692
133.21550921
132.572798174
131.904843722
131.210789156
130.489769646
129.74091641
128.963355502
128.156206444
127.318583841
126.44959734
125.548352095
124.613948921
123.645484355
122.642050512
121.60273461
120.5266189
119.41277922
118.260283193
117.068187779
115.83553611
114.561351899
113.24464126
111.884377434
110.47950107
109.02891088
107.531446613
105.985879198
104.390896303
102.745086342
101.046920292
99.2947338693
97.4867131612
95.620888283
93.6951446296
91.7072678166
89.6550519503
87.536517989
85.3503336779
83.0965680306
80.7779786396
78.4021141578
75.9845723395
73.552227942
71.1444357304
146.032009608
145.881999447
145.695243661
145.479137983
145.239431438
144.986609518
144.727971577
144.4672325
144.205864989
143.943942753
143.68072497
143.415088168
143.145791722
142.871614263
142.591412179
142.304135596
142.008823067
141.704587343
141.390598954
141.066070746
140.730244706
140.382381398
140.021751782
139.647630236
139.259293039
138.856009555
138.437044784
138.001655516
137.549089405
137.078584375
136.589368349
136.080659053
135.551664194
135.001581598
134.429599484
133.834896719
133.21664319
132.573999962
131.906120031
131.212149597
130.491230191
129.742495075
128.965070968
128.158081095
127.320644718
126.45187734
125.550891178
124.616795585
123.648697457
122.645701654
121.606911448
120.531427873
119.418349491
118.266771634
117.075785274
115.844475582
114.571919976
113.257183855
111.899320834
110.497361217
109.050313866
107.557159324
106.016843346
104.428269153
102.790292484
101.101718073
99.361300407
97.567753467
95.7197756279
93.8161017816
91.8555994825
89.8374390448
87.7613750232
85.6282199638
83.440587388
81.2040105453
78.9285252545
76.6307353966
74.3353198822
72.0742848442
145.989733283
145.840285599
145.663869978
145.460131712
145.230598901
144.984890267
144.730529914
144.471891132
144.211184024
143.949089668
143.685292196
143.4189337
143.148922553
142.874109987
142.593379175
142.305681902
142.010046173
141.705569523
141.39140667
141.06675606
140.730847485
140.382931637
140.02227178
139.648137279
139.259796976
138.85652021
138.437568868
138.002197981
137.549654218
137.079174933
136.589987781
136.081310562
135.552351183
135.002307885
134.430369468
133.835715588
133.217517192
132.574937042
131.907130495
131.213245926
130.492423705
129.743800661
128.966508577
128.159675136
127.322424668
126.453878858
125.553157455
124.619379026
123.651661723
122.649124054
121.610885579
120.536067444
119.423792725
118.273186535
117.08337594
115.853489545
114.582657221
113.270010698
111.914680435
110.515797825
109.072491342
107.58388749
106.049110588
104.467283903
102.83753444
101.159001924
99.4308556461
97.6523242442
95.8227445326
93.941643536
92.0088664086
90.024780194
87.9905802737
85.9087582347
83.7837604438
81.6228819543
79.4373722697
77.2436419241
75.0637341395
72.923826294
145.970456872
145.820579027
145.648616088
145.450680662
145.226119309
144.984000115
144.731864761
144.474355594
144.214028285
143.951867048
143.687776645
143.421041297
143.150651321
142.875499133
142.594483998
142.306559698
142.010749213
141.706142222
141.391885083
141.067168537
140.731215816
140.383272288
140.022596992
139.648456004
139.260116815
138.856846045
138.437904623
138.002546851
137.55001895
137.079558176
136.590392186
136.081738986
135.552806895
135.002794717
134.430891973
133.836279246
133.218128609
132.575604109
131.907862194
131.214052811
130.49332057
129.744804796
128.967640624
128.160960061
127.323892771
126.455566905
125.555110042
124.621650263
123.654317304
122.652243795
121.614566474
120.540427275
119.428974458
118.279363727
117.090759472
115.862335878
114.593278694
113.28278515
111.930067909
110.534357787
109.094903022
107.610977356
106.081884471
104.506966578
102.885617813
101.21730392
99.5015919661
97.7381952615
95.9270389133
94.0683604854
92.1628521827
90.2118835516
88.2177947901
86.1843394438
84.1172251777
82.0247965583
79.9187762217
77.8149172372
75.7329086457
73.6946730908
145.97045947
145.820595102
145.648643114
145.450716929
145.226164057
144.984052515
144.731923893
144.474420621
144.214098491
143.951941835
143.687855528
143.421123904
143.150737385
142.875588484
142.594576545
142.306655416
142.010848117
141.70624437
141.391990568
141.0672775
140.731328468
140.38338893
140.022718035
139.64858198
139.26024844
138.856984066
138.438049956
138.002700612
137.5501825
137.079733074
136.590580434
136.081943056
135.553029808
135.003040124
134.431164263
133.83658369
133.218471531
132.575993145
131.908306945
131.214565104
130.493914395
129.745497195
128.968452441
128.161916639
127.325024836
126.456911702
125.556712747
124.623565707
123.656612083
122.654998808
121.617879934
120.544418393
119.433787892
118.285175035
117.097781724
115.870827313
114.603552443
113.295220701
111.945126114
110.552599388
109.117006729
107.637766678
106.114358201
104.546335449
102.93334843
101.275169906
99.5717325739
97.8231856997
96.0299746477
94.1929493223
92.3135373069
90.3940420099
88.4375782782
86.4487668908
84.4341231679
82.402548215
80.3658272388
78.3389767041
76.3398982053
74.3876837834
145.98974113
145.840334197
145.663951653
145.46024125
145.230733993
144.985048227
144.73070794
144.472086733
144.21139507
143.949314373
143.685529117
143.419181731
143.149180903
142.874378149
142.59365688
142.305969069
142.010342862
141.705875909
141.391723036
141.067082835
140.731185302
140.383281388
140.022634657
139.648514902
139.26019139
138.856933636
138.438004012
138.002658103
137.550143286
137.079697806
136.590550406
136.081920224
135.553016808
135.003040308
134.431181799
133.836623693
133.218540248
132.576098226
131.908457701
131.214772865
130.494193003
129.745863557
128.968927152
128.162524694
127.325796532
126.457883767
125.557929745
124.625081742
123.65849287
122.657324148
121.620746681
120.547944057
119.438114985
118.290476409
117.104267015
115.878750658
114.613221535
113.307009362
111.959485989
110.570074788
109.138262252
107.663602424
106.145739447
104.584425286
102.979545243
101.33115478
99.6395386888
97.9052829223
96.1292767235
94.3128947786
92.4581153121
90.5676205428
88.6453868226
86.6966737661
84.7284726033
82.7499357865
80.7727356114
78.8112753545
76.8822708572
75.0031612479
146.03202288
145.88208168
145.69538162
145.479322613
145.23965868
144.986874724
144.728269988
144.467559943
144.206217914
143.944318201
143.681120561
143.41550208
143.146222656
142.872061386
142.59187505
142.304614089
142.009317294
141.705097607
141.39112574
141.066614782
140.730807071
140.38296358
140.02235567
139.648258581
139.259948827
138.856696611
138.437767592
138.002419462
137.54990099
137.079451564
136.590300866
136.081668849
135.552765824
135.002792714
134.430941432
133.83639534
133.218329818
132.575912987
131.908306553
131.214666713
130.4941452
129.745890364
128.969048343
128.162764266
127.326183591
126.458453625
125.558725268
124.626154989
123.659907081
122.659156107
121.623089583
120.550910933
119.441842838
118.295131292
117.110049963
115.885905179
114.622042262
113.317852899
111.972783198
110.586346493
109.158134071
107.68783324
106.175244059
104.620306404
103.023134157
101.384042099
99.7035850477
97.9826202755
96.2224677134
94.424942735
92.5925006556
90.7284032169
88.8369592239
86.9237707079
84.9960558695
83.0629859347
81.1360007474
79.2290452442
77.3582505249
75.5405296185
146.106108293
145.950599529
145.744376741
145.507879911
145.252463594
144.989235881
144.724667358
144.461197404
144.199097872
143.9375419
143.675196324
143.41058537
143.142279864
142.868971757
142.58948931
142.302785342
142.007915301
141.704013712
141.390272893
141.065925286
140.730229501
140.382459642
140.021897419
139.647826039
139.259527269
138.856276471
138.43734239
138.001985085
137.549455117
137.078993232
136.589830197
136.08118686
135.552274337
135.002294341
134.4304396
133.835894376
133.217835105
132.575431208
131.90784599
131.214237585
130.49376003
129.745564384
128.968800044
128.16261607
127.326162692
126.458593031
125.55906507
124.626743906
123.660804302
122.660433503
121.624834406
120.553228959
119.444862271
118.299007376
117.114970473
115.89209745
114.629781184
113.327471126
111.984683239
110.601012256
109.176149765
107.70990023
106.202202764
104.653157456
103.063056216
101.432436909
99.7621343781
98.0533318881
96.3076408024
94.5272031409
92.7148172117
90.8740831449
89.0095827186
87.1270900535
85.2338339443
83.3387973128
81.4530586499
79.5901860954
77.7661890913
75.998475717
146.229231475
146.053461269
145.81237051
145.545129518
145.2680182
144.991445779
144.719812496
144.453359331
144.190636193
143.929664279
143.668409795
143.40500663
143.13783009
142.865489983
142.586793961
142.300704808
142.006300913
141.702743256
141.389249428
141.065073946
140.729493681
140.381797344
140.021278067
139.647227493
139.258933805
138.855677409
138.436730484
138.001355633
137.548805328
137.078321741
136.58913675
136.080472103
135.551539723
135.001542095
134.429672742
133.835116761
133.217051514
132.574647553
131.907069603
131.213477544
130.493027535
129.744873167
128.968166861
128.162061282
127.325711009
126.458274437
125.558915972
124.626808545
123.661136421
122.661098347
121.625911144
120.554813485
119.447070762
118.301980283
117.11887754
115.897143952
114.636215237
113.335592238
111.994852685
110.613666139
109.191810594
107.729193207
106.225875658
104.682104583
103.098346616
101.475330008
99.8140974865
98.1160701269
96.3831226698
94.6176684601
92.8227628865
91.0022235079
89.1607741741
87.3042055636
85.4395784555
83.5754857096
81.7224409051
79.8935238001
78.1047645641
76.374836255
146.432631048
146.201004596
145.899722831
145.588850673
145.284103647
144.992160033
144.71325243
144.444184704
144.181275151
143.921235225
143.661305874
143.399250828
143.133278512
142.861940653
142.584041258
142.298563979
142.004616708
141.701390605
141.388130527
141.064114083
140.728636886
140.381002204
140.020514585
139.646474776
139.258176204
138.854904334
138.43593479
138.000532638
137.547952157
137.077436847
136.588219594
136.079522965
135.550559624
135.000532778
134.4286367
133.834057354
133.215973114
132.573555664
131.905970989
131.212380326
130.491941393
129.743809812
128.967140545
128.161089389
127.324814756
126.457479728
125.558254418
124.626318682
123.660865141
122.661102667
121.626260271
120.55559137
119.448379133
118.30394221
117.121641903
115.900890619
114.641160506
113.341996486
112.003029389
110.623991863
109.204737445
107.745262941
106.24573494
104.706521233
103.128228077
101.511744523
99.8582935767
98.1694913713
96.4474167125
94.6946876782
92.9145464155
91.1109510217
89.2886759037
87.4534180613
85.6119286735
83.7722014162
81.9438573422
80.1390505784
78.3732966325
76.6664506758
146.766686113
146.403514643
146.003772788
145.634905384
145.297395402
144.989383594
144.704096611
144.433457673
144.171141791
143.912523914
143.654187627
143.393602738
143.128870562
142.858524849
142.581390495
142.296485969
142.00295598
141.700025311
141.386967332
141.063083003
140.727686634
140.380094622
140.019622928
139.645578882
139.257262288
138.853962903
138.43495945
137.999519275
137.546898217
137.076340832
136.587080814
136.078341387
135.549335702
134.999267366
134.427331069
133.832713392
133.214593631
132.57214454
131.904533298
131.210922851
130.490472796
129.742340464
128.965682888
128.159658396
127.323428467
126.456159959
125.557027648
124.625217115
123.659928006
122.660377729
121.625805002
120.555475214
119.448686072
118.304773592
117.12312004
115.903163128
114.644407093
113.346433971
112.008918502
110.631645636
109.214530745
107.757643316
106.261234839
104.725771459
103.151972097
101.540852916
99.8937782972
98.212517935
96.4993095854
94.7569258081
92.9887428547
91.1988076792
89.3918967196
87.5735614533
85.7501660417
83.9289273314
82.1181478018
80.3282089465
78.5723266839
76.8691548416
147.316459274
146.662518914
146.110340758
145.672859522
145.301352372
144.979348091
144.690329329
144.420163842
144.159759396
143.903329276
143.646990244
143.388062
143.124633619
142.855279042
142.578877996
142.294502718
142.001344807
141.698667787
141.385775738
141.061993195
140.726652039
140.379082004
140.018604158
139.644538296
139.256188968
138.852849174
138.433800179
137.99831118
137.545639511
137.075030726
136.585719246
136.076928912
135.547873442
134.997756984
134.425774718
133.831113366
133.21295136
132.57046285
131.902815862
131.209173699
130.488696873
129.740544727
128.963876151
128.157851535
127.321634885
126.454396158
125.555313885
124.623578097
123.658393817
122.658984574
121.624597256
120.554506957
119.448022647
118.304494219
117.123320375
115.90395826
114.645934292
113.348858588
112.012439682
110.636502218
109.221008466
107.766083228
106.272042809
104.739428586
103.169045742
101.562007537
99.9197851558
98.2442622116
96.5377920539
94.8032608655
93.0441426084
91.2645475591
89.4692488135
87.6636752855
85.8538440978
84.0461430271
82.2472328552
80.4646734337
78.7055797836
76.9786492505
148.311696918
146.95388095
146.163134089
145.663291321
145.272451321
144.948696038
144.664284964
144.399779557
144.144378221
143.891934739
143.638623497
143.38193216
143.120124499
142.851924434
142.576331508
142.292510504
141.999723124
141.69728484
141.384538405
141.060835156
140.725515569
140.377930233
140.017427186
139.643323045
139.254926128
138.851532814
138.432426013
137.996873906
137.544135508
137.073457911
136.584076151
136.075214394
135.546086619
134.995897247
134.423841831
133.829108005
133.210877224
132.568322366
131.900611603
131.20690933
130.486377079
129.738174713
128.961462114
128.155401027
127.319157152
126.451902553
125.552818328
124.62109764
123.655949215
122.656601175
121.622305607
120.552343837
119.446032484
118.302730652
117.121848251
115.902856218
114.645298147
113.348803118
112.01310235
110.638047806
109.223633984
107.770023298
106.277575531
104.746881867
103.178803999
101.574518633
99.9355669669
98.2639067592
96.5619645628
94.8327152548
93.079707111
91.3071086021
89.5197247037
87.7229727985
85.9227498066
84.1249222337
82.3350195213
80.5578047976
78.7880818966
76.9963490683
150.10480548
147.176707648
146.063179566
145.536108672
145.169008867
144.874435604
144.612978211
144.364612523
144.120256975
143.875344786
143.627181157
143.374013412
143.114611408
142.848041447
142.573538653
142.290431664
141.998096649
141.695928962
141.383326038
141.059680359
140.724386678
140.376805132
140.016266802
139.64210645
139.253641934
138.85017405
138.430988972
137.995361673
137.542549837
137.071799046
136.582344366
136.073410107
135.544210315
134.993949443
134.42182306
133.827018587
133.208716196
132.566089834
131.898308337
131.204536467
130.48393611
129.735667735
128.958891913
128.152771163
127.316472131
126.449168047
125.550041369
124.618286863
123.653115112
122.653756534
121.619466009
120.549528242
119.443263762
118.300036426
117.11926183
115.900417445
114.643054652
113.346812594
112.011434134
110.636784911
109.222875561
107.769887575
106.278203241
104.748440164
103.181490768
101.578566929
99.941249722
98.2715463317
96.5719541469
94.845478899
93.0957260474
91.3269328314
89.5439884837
87.7524116928
85.9582482078
84.167994569
82.3880712678
80.6232613257
78.8531055421
76.953154591
56.9062747597
53.3541411498
50.9627029943
49.005284512
47.3332405111
45.8763975297
44.5907700907
43.446651766
42.4223700135
41.5011788545
40.6696726988
39.9168470866
39.233501332
38.61183765
38.0451775264
37.5277529582
37.0545480792
36.62117584
36.2237800658
35.8589563669
35.5236874785
35.2152899537
34.9313698295
34.6697855634
34.4286165602
34.2061360587
34.0007876198
33.8111646784
33.6359928942
33.4741151378
33.3244787732
33.186124694
33.0581776039
32.9398372199
32.8303702673
32.7291032476
32.6354159812
32.5487363273
32.4685362716
32.3943283618
32.3256612063
32.2621146694
32.2032958894
32.1488348382
32.098379618
32.0516097067
32.0083214236
31.9685035968
31.9317531988
31.8977628106
31.8663043387
31.8371410128
31.8100952331
31.7850073964
31.7617309105
31.7401467497
31.7201118043
31.701493315
31.6841770579
31.6680523442
31.653034353
31.6390231461
31.625930491
31.613676065
31.6021848138
31.5913878112
31.5812228286
31.5716337672
31.5625695137
31.5539841003
31.5458349051
31.5380773102
31.5306731483
31.5235894611
31.5167965263
31.5102686587
31.5039770287
31.4978988773
31.4920121188
31.4862978401
31.4807352009
31.4753069751
31.4700088162
31.4648228377
31.459739976
31.4547482717
31.4498344204
31.4449828351
31.4401903264
31.4354645315
31.4307924209
31.426156297
31.4215486509
31.4169635088
31.4123949456
31.4078375711
31.4032867533
31.3987387577
31.3941901877
31.3896371582
31.3850753225
31.3805006249
31.3759098845
31.3713005276
31.366669965
31.3620151995
31.3573328963
31.3526197652
31.3478729721
31.3430902974
31.3382698873
31.3334097995
31.3285076713
31.3235608603
31.3185669361
31.3135242009
31.3084319348
31.303290121
31.2980988503
31.2928579196
31.2875666346
31.2822241871
31.2768298207
31.2713782921
31.2658487048
31.2601894952
31.2546652288
31.2495889586
31.2444596667
31.2392838895
31.2341662525
31.2291820929
31.2243852636
31.2198327076
31.2155851177
31.211701848
31.2082352536
31.2052293149
31.2026920924
31.20060474
31.19913047
31.1979109599
31.1968953848
31.195458757
31.1919421134
31.1821261824
31.1559179587
31.0916315316
30.9479795512
30.6543978676
30.1056495753
29.168937079
27.7116739233
25.6412039155
22.9315740297
19.6389124685
15.8817381414
11.6282044776
6.6030942034
1.57036712398
60.0876426988
56.0348136153
53.3228265588
51.1704645945
49.368508768
47.8185481532
46.462368582
45.2627354165
44.1934744098
43.2349528541
42.371832408
41.5917698682
40.8846122887
40.2418706159
39.6563555658
39.121916024
38.6332446948
38.1857297953
37.7753395005
37.3985302048
37.0521726526
36.7334920727
36.4400188721
36.1695479291
35.92010438
35.6899145261
35.4773807542
35.2810599341
35.0996448711
34.9319486973
34.7768916344
34.6334896341
34.5008444834
34.3781346599
34.2646073034
34.1595707106
34.0623879014
33.9724713713
33.8892796531
33.8123141241
33.7411148014
33.6752565106
33.6143469696
33.5580254122
33.5059611905
33.4578494342
33.4133781923
33.3721242386
33.3339534909
33.2986215725
33.2659254579
33.2356695047
33.2076630752
33.1817276786
33.1576955986
33.135409854
33.1147261727
33.0955163279
33.0776598035
33.0610367858
33.0455433389
33.031089745
33.0175935507
33.0049728588
32.9931502731
32.9820544318
32.9716208046
32.9617900931
32.9525089961
32.9437310163
32.9354103649
32.9274999594
32.9199590319
32.912753218
32.9058521658
32.8992274368
32.8928513637
32.8866984035
32.880748315
32.8749808569
32.869373541
32.8639031986
32.8585474227
32.8533023987
32.848158263
32.8431028816
32.8381255547
32.8332115596
32.8283528241
32.8235364841
32.8187581316
32.8140142088
32.8093004166
32.8046110468
32.7999404616
32.7952833098
32.7906352087
32.7859924724
32.7813514322
32.7767080296
32.7720578075
32.7673968008
32.7627218253
32.7580303146
32.7533196684
32.7485868542
32.7438284302
32.7390409184
32.7342213091
32.7293672436
32.724476803
32.7195479269
32.7145782382
32.709565036
32.7045059388
32.6993993008
32.6942446239
32.6890422152
32.6837927556
32.6784969785
32.673155997
32.6677720935
32.6623504167
32.6568994835
32.6514377296
32.6459847685
32.6405775078
32.6351435895
32.6296640142
32.6244821634
32.619389673
32.6144609879
32.6097762329
32.605398399
32.6013980915
32.5978488813
32.5948209911
32.5923741394
32.5905166928
32.5893356682
32.5887741111
32.5887108978
32.5888560987
32.5883898698
32.5851317496
32.5738791424
32.5425536649
32.4662086201
32.2985922224
31.9628136963
31.3475206807
30.3169210969
28.7415333376
26.5385241245
23.6938236978
20.2680562631
16.3777368353
12.0062891251
6.89226803843
1.70393550263
62.2950741578
58.3616228061
55.4944660427
53.2105278915
51.308550144
49.6820542341
48.266007195
47.0183937828
45.9097916474
44.9183401821
44.0271438688
43.2227509973
42.4942070147
41.8324350345
41.2298093677
40.6798510108
40.1770035429
39.7164635958
39.2940501554
38.906101919
38.5493954928
38.2210797386
37.9186220409
37.6397643295
37.3824864407
37.1449752984
36.9255985411
36.7228820646
36.5354907701
36.3622123605
36.2019436887
36.0536790534
35.9165000878
35.7895664174
35.6721073951
35.5634144726
35.4628347735
35.3697659722
35.2836525712
35.2039820723
35.1302806758
35.062109631
34.9990619922
34.9407592104
34.8868489158
34.8370060522
34.7909346016
34.7482968306
34.7087479409
34.6721509376
34.6383136802
34.6070134103
34.5780449425
34.5512234817
34.5263793819
34.5033550066
34.482003001
34.4621867728
34.4437819673
34.4266687283
34.4107335872
34.3958792287
34.3820166345
34.3690611538
34.3569330618
34.3455587696
34.3348708991
34.3248069279
34.3153128076
34.3063422869
34.2978431774
34.2897720194
34.2820823536
34.2747412858
34.2677142179
34.2609723856
34.2544881836
34.2482364491
34.2421919789
34.2363277592
34.2306258803
34.2250725335
34.2196551853
34.2143578622
34.209165555
34.2040659618
34.199048026
34.194099467
34.18921206
34.1843762066
34.1795847594
34.1748297689
34.1701043453
34.1654021272
34.1607176842
34.1560462713
34.151383512
34.146725006
34.1420663176
34.1374031265
34.1327310998
34.1280462745
34.1233453422
34.1186256547
34.1138846152
34.1091192041
34.1043259729
34.0995014512
34.0946426765
34.0897473195
34.0848134464
34.0798390331
34.0748218311
34.0697593894
34.0646496117
34.0594910973
34.0542834648
34.049027136
34.0437230571
34.0383725646
34.0329777951
34.0275425414
34.0220737657
34.0165821442
34.0110862104
34.0056003714
34.0001293782
33.994711641
33.9894299299
33.9841537096
33.9790058295
33.9740614975
33.9694440511
33.9652053621
33.9614161264
33.9581662633
33.9555381025
33.9536103572
33.9523875758
33.9519113051
33.9522128977
33.9531013617
33.9541837295
33.9543847588
33.9509480494
33.9376269709
33.9003326981
33.8108524277
33.6181731855
33.2395639843
32.5583973023
31.4368438807
29.7489795034
27.4210754672
24.449175938
20.8965901956
16.8765226963
12.3869046358
7.18104760163
1.83529158462
64.0992507252
60.3745270003
57.4705315133
55.1153414545
53.1452346159
51.4608703545
49.997085119
48.7099979252
47.5683606628
46.5488480643
45.6334478841
44.8078719512
44.0605421404
43.38191592
42.7640184673
42.2001073163