/*--------------------------------*- C++ -*----------------------------------*\
| =========                 |                                                 |
| \\      /  F ield         | OpenFOAM: The Open Source CFD Toolbox           |
|  \\    /   O peration     | Version:  2106                                  |
|   \\  /    A nd           | Website:  www.openfoam.com                      |
|    \\/     M anipulation  |                                                 |
\*---------------------------------------------------------------------------*/
FoamFile
{
    version     2.0;
    format      ascii;
    arch        "LSB;label=32;scalar=64";
    class       volVectorField;
    location    "0.45";
    object      U;
}
// * * * * * * * * * * * * * * * * * * * * * * * * * * * * * * * * * * * * * //

dimensions      [0 1 -1 0 0 0 0];

internalField   nonuniform List<vector> 
11200
(
(0.662462405156 0.150569441891 0)
(0.558948680407 0.103243388035 0)
(0.383850752829 0.051351223877 0)
(0.283747619484 0.024870854779 0)
(0.232075304188 0.0124170446439 0)
(0.201908631602 0.00662281627126 0)
(0.183197988798 0.00380291397191 0)
(0.171276554745 0.00231586971624 0)
(0.16351038158 0.00146450620449 0)
(0.158388852839 0.000944891954245 0)
(0.155006721416 0.000615176238055 0)
(0.152786773576 0.000402232939496 0)
(0.151346630993 0.000264231206695 0)
(0.150428402086 0.000175249118845 0)
(0.149856806299 0.000118359755315 0)
(0.149512613259 8.21592619588e-05 0)
(0.14931506016 5.88653739874e-05 0)
(0.149209704341 4.33152472951e-05 0)
(0.1491598498 3.29339801216e-05 0)
(0.149142613915 2.81854971666e-05 0)
(0.1491447729 2.76831946099e-05 0)
(0.149157051411 2.98886368404e-05 0)
(0.149172676252 3.30490779219e-05 0)
(0.149188227317 3.59647785036e-05 0)
(0.149202439503 3.86004426793e-05 0)
(0.149214712188 4.10396470883e-05 0)
(0.149224877167 4.331693591e-05 0)
(0.149233041211 4.54634080588e-05 0)
(0.149239441384 4.75183737497e-05 0)
(0.149244360361 4.95290174632e-05 0)
(0.149248083866 5.15574830419e-05 0)
(0.149250879674 5.36946470407e-05 0)
(0.14925294451 5.60231524723e-05 0)
(0.149254447933 5.84048008493e-05 0)
(0.149255521943 6.07664284029e-05 0)
(0.149256252525 6.30879471822e-05 0)
(0.149256735852 6.53795815887e-05 0)
(0.149257055663 6.76542422742e-05 0)
(0.149257266767 6.99234887369e-05 0)
(0.149257399256 7.21936478587e-05 0)
(0.149257474691 7.44658987242e-05 0)
(0.149257510863 7.67414128563e-05 0)
(0.14925751987 7.90199318493e-05 0)
(0.149257509761 8.13001697536e-05 0)
(0.149257486002 8.35801845045e-05 0)
(0.149257452732 8.5857525576e-05 0)
(0.149257413841 8.81293981266e-05 0)
(0.149257373769 9.03928446063e-05 0)
(0.149257337854 9.2644802427e-05 0)
(0.149257312026 9.48824709651e-05 0)
(0.149257303568 9.71028365563e-05 0)
(0.149257322102 9.93030196907e-05 0)
(0.149257380217 0.000101479895469 0)
(0.149257495219 0.000103629766995 0)
(0.149257692087 0.000105748044047 0)
(0.14925800681 0.000107829088405 0)
(0.149258491249 0.000109865764839 0)
(0.149259222956 0.000111848074029 0)
(0.149260312865 0.000113763699424 0)
(0.149261919424 0.000115587705401 0)
(0.149264292131 0.00011726360789 0)
(0.149267838708 0.000118709763744 0)
(0.149273022463 0.000119966777251 0)
(0.149280490296 0.000121229211262 0)
(0.149291277677 0.000122962515401 0)
(0.149306908451 0.000125338036111 0)
(0.149329772612 0.000128117581895 0)
(0.149363567474 0.000131076003362 0)
(0.14941388773 0.000133998999689 0)
(0.149488963462 0.000136774327341 0)
(0.149600728807 0.00014068364341 0)
(0.149772029943 0.000151557357209 0)
(0.150040626658 0.000172276431886 0)
(0.15046965811 0.000202513391817 0)
(0.151194916504 0.000232423377138 0)
(0.152494018619 0.000191614798015 0)
(0.155023052125 -0.000216778140328 0)
(0.162376165653 -0.00210989311814 0)
(0.187703142186 -0.0107874896817 0)
(0.204355472934 -0.0496544902424 0)
(0.965408256294 0.28921470575 0)
(0.961962867398 0.252656039387 0)
(0.823574406935 0.159021441225 0)
(0.698139390938 0.0959957308849 0)
(0.610225493499 0.0582481139397 0)
(0.548971529242 0.0362148532497 0)
(0.506588933741 0.0231612855223 0)
(0.477567319969 0.0151375159512 0)
(0.457745547559 0.0100177558223 0)
(0.4442285204 0.00665814167156 0)
(0.435053361944 0.00441555645118 0)
(0.428873185751 0.00290686566557 0)
(0.424754274652 0.00189105794487 0)
(0.422046730958 0.00121004473777 0)
(0.420297900882 0.000757162863485 0)
(0.419193298999 0.000459255462116 0)
(0.418515700537 0.000265854513631 0)
(0.418116559381 0.000142399385622 0)
(0.417895961222 6.61093206737e-05 0)
(0.417786915859 2.30919054507e-05 0)
(0.417745507526 1.40671704382e-06 0)
(0.417742238104 -1.01640581e-05 0)
(0.417756845683 -1.37155037546e-05 0)
(0.417778815377 -1.3268905316e-05 0)
(0.417803121234 -1.08366097405e-05 0)
(0.417826503066 -7.49355881893e-06 0)
(0.417847266964 -3.87742150384e-06 0)
(0.41786481419 -3.58320173851e-07 0)
(0.417879149093 2.8623646311e-06 0)
(0.417890587844 5.680983005e-06 0)
(0.417899602902 8.03357070566e-06 0)
(0.417906688092 9.83555843347e-06 0)
(0.417912045451 1.10047268253e-05 0)
(0.41791590829 1.18578634068e-05 0)
(0.417918653205 1.26806674402e-05 0)
(0.417920554855 1.34381193831e-05 0)
(0.41792185515 1.41121869497e-05 0)
(0.417922745507 1.47271477859e-05 0)
(0.417923353474 1.53119403835e-05 0)
(0.417923751645 1.58805267862e-05 0)
(0.417923993385 1.64334105944e-05 0)
(0.417924122596 1.69760628679e-05 0)
(0.417924169571 1.7512157335e-05 0)
(0.417924155845 1.80446953163e-05 0)
(0.41792409684 1.85763751443e-05 0)
(0.417924004253 1.91094098558e-05 0)
(0.4179238885 1.96456540308e-05 0)
(0.417923760562 2.01871228388e-05 0)
(0.417923633243 2.07360615622e-05 0)
(0.417923520957 2.12950882218e-05 0)
(0.417923441939 2.18643693485e-05 0)
(0.417923420975 2.24439398623e-05 0)
(0.41792349111 2.30336134498e-05 0)
(0.417923697835 2.36327006712e-05 0)
(0.417924106057 2.42403053945e-05 0)
(0.417924808606 2.48557940968e-05 0)
(0.417925938405 2.54758243234e-05 0)
(0.417927692927 2.60881430405e-05 0)
(0.417930352149 2.66768736414e-05 0)
(0.417934305771 2.72112339715e-05 0)
(0.417940162689 2.7639403805e-05 0)
(0.417949021468 2.79176763015e-05 0)
(0.417962362835 2.82043912306e-05 0)
(0.417982327724 2.77356150776e-05 0)
(0.418011675157 2.51022240926e-05 0)
(0.41805401711 1.92539640478e-05 0)
(0.418115558286 9.38254193883e-06 0)
(0.418206419921 -6.04838704364e-06 0)
(0.418342205386 -2.956314663e-05 0)
(0.418547809915 -6.48412488847e-05 0)
(0.418865126536 -0.000116069823217 0)
(0.419363736322 -0.000188212646809 0)
(0.420157088101 -0.000307996613953 0)
(0.421448814631 -0.00053296800164 0)
(0.423630496758 -0.000999922491966 0)
(0.427420700503 -0.00209049806756 0)
(0.434241323201 -0.00485609260419 0)
(0.448266797636 -0.0122528537232 0)
(0.47464316699 -0.03423832582 0)
(0.478159593163 -0.098759748419 0)
(1.02222096744 0.238416186579 0)
(1.08213753787 0.295926651984 0)
(1.03447724224 0.239503066219 0)
(0.954615432856 0.174290164721 0)
(0.879992087829 0.121345469145 0)
(0.818614476695 0.0830993853783 0)
(0.771410900397 0.0567316688415 0)
(0.736634448528 0.0387409705268 0)
(0.711624497634 0.0264327890248 0)
(0.693916692483 0.0179731065294 0)
(0.681541489459 0.0121424494876 0)
(0.673000204332 0.00812490945306 0)
(0.667180747532 0.00536632210089 0)
(0.663271786764 0.00348444574705 0)
(0.660688625231 0.00221256253629 0)
(0.659014310347 0.00136338289679 0)
(0.657954637953 0.000805244908791 0)
(0.657304352421 0.000445917715315 0)
(0.65692194036 0.000221069680613 0)
(0.656710381035 8.55821754148e-05 0)
(0.656603523622 8.3586829933e-06 0)
(0.656561982667 -3.37188174434e-05 0)
(0.656558091276 -5.68531999265e-05 0)
(0.656571576809 -6.68723373895e-05 0)
(0.656593116316 -6.84799285599e-05 0)
(0.65661694535 -6.55588517259e-05 0)
(0.656639756109 -6.05484359619e-05 0)
(0.65665994177 -5.48592887715e-05 0)
(0.656676917614 -4.92757787154e-05 0)
(0.656690662363 -4.42047534274e-05 0)
(0.656701423006 -3.98409191153e-05 0)
(0.656709584034 -3.63025571262e-05 0)
(0.656715841452 -3.3695970849e-05 0)
(0.656720885104 -3.18562727848e-05 0)
(0.656724757238 -3.08086584622e-05 0)
(0.656727472755 -3.03010248456e-05 0)
(0.656729343151 -3.0245468963e-05 0)
(0.656730648054 -3.05572327511e-05 0)
(0.656731556197 -3.10857506044e-05 0)
(0.656732158511 -3.17483868104e-05 0)
(0.656732529978 -3.25154647108e-05 0)
(0.656732736336 -3.33515639624e-05 0)
(0.656732822045 -3.42324058159e-05 0)
(0.656732820052 -3.51391966666e-05 0)
(0.656732754365 -3.60570285082e-05 0)
(0.656732643137 -3.69751522826e-05 0)
(0.656732502469 -3.78858480557e-05 0)
(0.656732349028 -3.87832129042e-05 0)
(0.656732201494 -3.966237691e-05 0)
(0.656732078928 -4.05173352525e-05 0)
(0.656732005729 -4.1344879762e-05 0)
(0.656732017477 -4.21413127122e-05 0)
(0.656732162538 -4.29053456114e-05 0)
(0.656732508396 -4.36409715299e-05 0)
(0.656733152117 -4.43624306039e-05 0)
(0.656734230262 -4.51003541987e-05 0)
(0.656735932577 -4.59119797274e-05 0)
(0.656738542726 -4.68920306817e-05 0)
(0.656742472759 -4.81649532346e-05 0)
(0.656748318583 -4.99531464758e-05 0)
(0.6567570237 -5.27735773977e-05 0)
(0.656770237405 -5.76044876492e-05 0)
(0.656789250135 -6.52753383963e-05 0)
(0.656815509556 -7.66338246364e-05 0)
(0.656852894098 -9.33837915655e-05 0)
(0.65690811691 -0.000117912681031 0)
(0.656990546044 -0.00015342678795 0)
(0.657113978682 -0.000205215442272 0)
(0.657300237961 -0.000281798588739 0)
(0.657584721043 -0.000397049778295 0)
(0.658025555445 -0.000575315651354 0)
(0.658711923897 -0.000863856059662 0)
(0.659790862873 -0.00135272520513 0)
(0.661519875962 -0.00221500878425 0)
(0.664341044718 -0.00381318040846 0)
(0.6689499748 -0.00694589604311 0)
(0.676372285047 -0.0133515015167 0)
(0.688615359762 -0.0268404361324 0)
(0.705237473546 -0.0563120435557 0)
(0.700485388766 -0.113066721171 0)
(1.02251475657 0.170807152037 0)
(1.10138976538 0.276496477716 0)
(1.11752427708 0.26666479895 0)
(1.09214662954 0.219901699343 0)
(1.05187818863 0.168168848609 0)
(1.01020826551 0.123567398223 0)
(0.97349473968 0.0888375235222 0)
(0.943864611519 0.0630063737304 0)
(0.921142860583 0.0442232062623 0)
(0.904284138532 0.0307423947566 0)
(0.892074939579 0.021156295933 0)
(0.883404587324 0.0143954701963 0)
(0.87735275458 0.00966794984271 0)
(0.873197800266 0.00639383889831 0)
(0.870393032869 0.00415116661396 0)
(0.8685341534 0.00263449271122 0)
(0.867327765035 0.00162401907773 0)
(0.86656436935 0.000962677473213 0)
(0.866096618601 0.000539123567632 0)
(0.865822382969 0.00027515448373 0)
(0.865671546675 0.00011706922214 0)
(0.865595305052 2.87932804433e-05 0)
(0.865564257364 -1.93237847668e-05 0)
(0.865561460559 -4.12601537331e-05 0)
(0.865572816043 -4.76645116761e-05 0)
(0.865589833428 -4.55244272374e-05 0)
(0.865608153265 -3.91556571146e-05 0)
(0.865625501648 -3.11455121469e-05 0)
(0.865640795246 -2.29649095999e-05 0)
(0.865653667748 -1.53813967598e-05 0)
(0.865664151425 -8.72369452671e-06 0)
(0.865672449745 -3.04392869867e-06 0)
(0.865678815505 1.73594010014e-06 0)
(0.865683455842 5.46872003238e-06 0)
(0.865686786768 8.03692299845e-06 0)
(0.865689195379 9.79456016041e-06 0)
(0.865690836248 1.11471140196e-05 0)
(0.865692006478 1.22906515943e-05 0)
(0.865692883474 1.32577661778e-05 0)
(0.865693486203 1.41427044537e-05 0)
(0.865693863654 1.49370219979e-05 0)
(0.865694080423 1.56633143992e-05 0)
(0.865694174264 1.63366516866e-05 0)
(0.865694175537 1.69729401235e-05 0)
(0.865694106171 1.75867169034e-05 0)
(0.865693982427 1.81879341479e-05 0)
(0.865693819763 1.87842343943e-05 0)
(0.865693635394 1.9381926946e-05 0)
(0.865693451407 1.99887309162e-05 0)
(0.865693291449 2.06155922278e-05 0)
(0.865693185581 2.12476074564e-05 0)
(0.865693175406 2.18713923811e-05 0)
(0.865693313318 2.24691453291e-05 0)
(0.86569366818 2.30141359928e-05 0)
(0.865694334843 2.34712850017e-05 0)
(0.865695444955 2.38085624317e-05 0)
(0.865697184824 2.39770164621e-05 0)
(0.865699852661 2.38622735785e-05 0)
(0.865703854275 2.33199853299e-05 0)
(0.865709601606 2.19325586503e-05 0)
(0.865717593033 1.91427144974e-05 0)
(0.865729433056 1.42144818462e-05 0)
(0.865747698497 5.33092189015e-06 0)
(0.865775375185 -9.07515060734e-06 0)
(0.865816323489 -3.10054833581e-05 0)
(0.865876474092 -6.4433464993e-05 0)
(0.86596517386 -0.000116232970388 0)
(0.866096942649 -0.000197161506633 0)
(0.866294334243 -0.000324474900128 0)
(0.866592168091 -0.00052664113134 0)
(0.867044042597 -0.000852594406213 0)
(0.867735006064 -0.00138924939401 0)
(0.868801375798 -0.00228533265241 0)
(0.870456345544 -0.00381536125104 0)
(0.873018688305 -0.00650344923825 0)
(0.876887105408 -0.0113587631168 0)
(0.882383792117 -0.0202499360339 0)
(0.889691506628 -0.0364468492935 0)
(0.896364697823 -0.0654799932894 0)
(0.886532881986 -0.110019906745 0)
(1.01287875276 0.118961023076 0)
(1.08820671514 0.231806936068 0)
(1.13741368578 0.253106764475 0)
(1.15409088953 0.228992754254 0)
(1.14994213921 0.188368360389 0)
(1.13538469327 0.1465798462 0)
(1.11758899449 0.110150968297 0)
(1.10059505558 0.0808162248106 0)
(1.08612463101 0.0582265789814 0)
(1.07459099006 0.0413189873571 0)
(1.06579153816 0.0289160223878 0)
(1.05928806713 0.0199601020577 0)
(1.05459984987 0.0135815622381 0)
(1.05129086072 0.00909744543854 0)
(1.04899995251 0.00598615638202 0)
(1.04744351883 0.00385696894568 0)
(1.04640665415 0.00242160045394 0)
(1.04573074666 0.00147015254263 0)
(1.04530119834 0.000851704172857 0)
(1.04503670823 0.00045901848382 0)
(1.04488035355 0.00021675901832 0)
(1.04479274652 7.30199891492e-05 0)
(1.04474889215 -5.50187842788e-06 0)
(1.04473200458 -4.40062408753e-05 0)
(1.04472976587 -5.93837940169e-05 0)
(1.04473526133 -6.17181871812e-05 0)
(1.04474421982 -5.72455717758e-05 0)
(1.04475411346 -4.98045987384e-05 0)
(1.04476356315 -4.16460229131e-05 0)
(1.04477189936 -3.39906355396e-05 0)
(1.04477887252 -2.74248098276e-05 0)
(1.04478446975 -2.21515568164e-05 0)
(1.044788837 -1.81263048742e-05 0)
(1.04479218447 -1.51365257827e-05 0)
(1.0447947659 -1.28052172646e-05 0)
(1.04479687418 -1.10097877253e-05 0)
(1.04479862167 -9.52283795332e-06 0)
(1.0447999547 -8.23484089753e-06 0)
(1.04480094399 -7.21716222141e-06 0)
(1.04480164197 -6.54931514311e-06 0)
(1.04480207057 -6.17010410734e-06 0)
(1.04480231642 -5.96133802152e-06 0)
(1.04480242387 -5.87269274443e-06 0)
(1.04480243059 -5.85605738582e-06 0)
(1.04480236117 -5.87024865663e-06 0)
(1.04480223311 -5.8959870976e-06 0)
(1.04480206431 -5.92321186365e-06 0)
(1.04480187647 -5.9468446577e-06 0)
(1.04480169785 -5.96950078575e-06 0)
(1.0448015358 -6.00520937713e-06 0)
(1.04480140421 -6.03675107093e-06 0)
(1.04480134778 -6.06223884834e-06 0)
(1.04480142026 -6.08926524403e-06 0)
(1.04480169799 -6.13401426472e-06 0)
(1.04480230683 -6.23770664318e-06 0)
(1.04480341919 -6.52240645004e-06 0)
(1.04480522523 -7.24296693025e-06 0)
(1.04480803113 -8.6731974636e-06 0)
(1.04481214578 -1.13131661377e-05 0)
(1.04481804541 -1.51530069203e-05 0)
(1.04482673465 -2.00837791676e-05 0)
(1.04483936459 -2.63430589741e-05 0)
(1.04485724732 -3.61864341317e-05 0)
(1.04488267948 -5.26049500031e-05 0)
(1.04491913167 -7.98103095509e-05 0)
(1.04497176253 -0.00012404542187 0)
(1.04504818104 -0.000195078270886 0)
(1.04515974169 -0.000308486408116 0)
(1.04532359653 -0.000489431549327 0)
(1.0455656119 -0.000778928397291 0)
(1.045924465 -0.00124427911712 0)
(1.04645800061 -0.00199709802101 0)
(1.04725031386 -0.00322787299787 0)
(1.04841431292 -0.00526728921165 0)
(1.05007724329 -0.00869201906476 0)
(1.05229566983 -0.0144955029192 0)
(1.05482548968 -0.0242842576012 0)
(1.05687705177 -0.0403673842984 0)
(1.05574473478 -0.0655829979921 0)
(1.0421318651 -0.0994326170969 0)
(1.00447483626 0.0814039973086 0)
(1.06917238013 0.181288538048 0)
(1.130805701 0.216950418385 0)
(1.17375002587 0.210789155876 0)
(1.19865268263 0.183690077847 0)
(1.21019991994 0.14975168481 0)
(1.21350260624 0.116779145836 0)
(1.21251729718 0.0882206796061 0)
(1.20973104667 0.0650481524728 0)
(1.20651126628 0.0470209102275 0)
(1.20351920967 0.0334068097467 0)
(1.20101153581 0.0233557338082 0)
(1.1990345436 0.0160720153205 0)
(1.19753888122 0.0108795154906 0)
(1.19644142612 0.00723419010974 0)
(1.19565570659 0.0047135207271 0)
(1.1951050193 0.00299763142847 0)
(1.19472661397 0.00184916322249 0)
(1.19447164012 0.00109496279196 0)
(1.19430333707 0.000610613814776 0)
(1.19419470584 0.000307989183271 0)
(1.19412643044 0.000125771334645 0)
(1.19408539102 2.22260981646e-05 0)
(1.19406214314 -3.244916935e-05 0)
(1.19404985364 -5.72683499194e-05 0)
(1.19404436509 -6.45949235708e-05 0)
(1.19404287644 -6.23741175693e-05 0)
(1.1940435694 -5.55205290408e-05 0)
(1.19404532882 -4.69441844797e-05 0)
(1.19404749695 -3.82582416326e-05 0)
(1.19404970219 -3.02639956841e-05 0)
(1.19405175208 -2.32664754023e-05 0)
(1.19405357685 -1.72895930721e-05 0)
(1.19405517033 -1.22605892364e-05 0)
(1.19405654801 -8.07294960697e-06 0)
(1.1940577292 -4.67275074001e-06 0)
(1.19405868727 -2.06267546729e-06 0)
(1.19405936981 -1.74705112844e-07 0)
(1.19405973693 1.14186174007e-06 0)
(1.194059865 1.99696612495e-06 0)
(1.19405993584 2.67446632423e-06 0)
(1.19405998547 3.27584548628e-06 0)
(1.19405998578 3.80069617292e-06 0)
(1.19405995342 4.25901316795e-06 0)
(1.19405988406 4.66181873271e-06 0)
(1.19405976842 5.02555117501e-06 0)
(1.1940596109 5.36255087642e-06 0)
(1.19405942001 5.67687163456e-06 0)
(1.19405920479 5.9609698038e-06 0)
(1.19405900731 6.19683928992e-06 0)
(1.19405887565 6.40769758323e-06 0)
(1.19405883785 6.58620083227e-06 0)
(1.19405894075 6.70490306647e-06 0)
(1.19405923959 6.72245441742e-06 0)
(1.19405976385 6.57794511717e-06 0)
(1.19406049952 6.17415649772e-06 0)
(1.19406154775 5.37416703656e-06 0)
(1.19406305841 3.76865132883e-06 0)
(1.19406573963 9.81830860119e-07 0)
(1.19407061159 -3.30150515396e-06 0)
(1.19407815177 -9.86961684863e-06 0)
(1.19408831613 -2.0084591174e-05 0)
(1.19410189904 -3.59750656928e-05 0)
(1.1941208901 -6.04639351331e-05 0)
(1.19414741733 -9.8133720094e-05 0)
(1.19418431004 -0.000156303637428 0)
(1.19423556751 -0.000246620732702 0)
(1.19430683241 -0.000387565381754 0)
(1.19440600027 -0.000608594975903 0)
(1.1945438595 -0.000957037319505 0)
(1.19473446262 -0.00150939246728 0)
(1.19499458968 -0.00238992237421 0)
(1.19533906614 -0.00380181451248 0)
(1.19576516013 -0.00607792125018 0)
(1.19621254866 -0.00975694700319 0)
(1.19646151592 -0.0156824693136 0)
(1.19592528903 -0.0250650005562 0)
(1.19344946223 -0.0393595992081 0)
(1.18669926366 -0.0598084290951 0)
(1.1701569328 -0.0851003999017 0)
(0.998962327212 0.0544316252752 0)
(1.05310957521 0.133401606741 0)
(1.1162826962 0.170777557664 0)
(1.1730127413 0.175143872015 0)
(1.2179124929 0.159583606831 0)
(1.25049861836 0.134951021021 0)
(1.27288495951 0.108411658012 0)
(1.28776727725 0.0838849730947 0)
(1.29745274296 0.0630565736209 0)
(1.30366082001 0.046299922678 0)
(1.30759241996 0.0333205162743 0)
(1.31005378552 0.0235495257911 0)
(1.31157371836 0.0163599099338 0)
(1.31249503098 0.0111713176827 0)
(1.31303873443 0.00749150947153 0)
(1.31334683638 0.00492448869025 0)
(1.31351026007 0.00316295779268 0)
(1.3135868991 0.00197475405901 0)
(1.31361328423 0.0011881986987 0)
(1.31361214385 0.000678630826553 0)
(1.31359731636 0.00035700990239 0)
(1.31357700668 0.000160755622993 0)
(1.313556025 4.64708531479e-05 0)
(1.31353674291 -1.58678088081e-05 0)
(1.31352009839 -4.60567864664e-05 0)
(1.31350642275 -5.7067564364e-05 0)
(1.31349553089 -5.73231811377e-05 0)
(1.3134870859 -5.20854998535e-05 0)
(1.31348069998 -4.45236793988e-05 0)
(1.31347598816 -3.64617705748e-05 0)
(1.31347259997 -2.88729944445e-05 0)
(1.31347023195 -2.22114292023e-05 0)
(1.31346862391 -1.66284868141e-05 0)
(1.31346754713 -1.21319504649e-05 0)
(1.31346683571 -8.65614299727e-06 0)
(1.31346639239 -6.09935115703e-06 0)
(1.3134661165 -4.32434440689e-06 0)
(1.31346591956 -3.1239939425e-06 0)
(1.31346579992 -2.26811147169e-06 0)
(1.31346584397 -1.55195195523e-06 0)
(1.31346601409 -9.75592541258e-07 0)
(1.3134661314 -5.62949118647e-07 0)
(1.3134661453 -2.05501372789e-07 0)
(1.3134660866 1.27877979615e-07 0)
(1.31346597522 4.34025490625e-07 0)
(1.31346582429 7.21594996158e-07 0)
(1.31346563865 1.00230744523e-06 0)
(1.31346542247 1.28617686239e-06 0)
(1.31346518607 1.58325739778e-06 0)
(1.31346496294 1.89834932464e-06 0)
(1.31346477608 2.18026800297e-06 0)
(1.3134646318 2.3886266096e-06 0)
(1.31346456001 2.47809359888e-06 0)
(1.31346461506 2.38487920062e-06 0)
(1.313464885 2.02490672771e-06 0)
(1.31346549188 1.31662472369e-06 0)
(1.31346638962 2.02989257669e-07 0)
(1.31346770884 -1.48549475532e-06 0)
(1.31346987307 -4.01455251638e-06 0)
(1.31347306288 -8.11791882402e-06 0)
(1.31347750659 -1.50686612842e-05 0)
(1.3134834381 -2.64263633607e-05 0)
(1.31349114036 -4.37942076699e-05 0)
(1.31350110186 -7.03531651515e-05 0)
(1.31351364512 -0.000111133841737 0)
(1.31352886168 -0.000173885071168 0)
(1.313546381 -0.000270690419774 0)
(1.31356490497 -0.000420507704832 0)
(1.31358126168 -0.000653152248094 0)
(1.31358856788 -0.00101583616175 0)
(1.31357278947 -0.00158354255143 0)
(1.31350652135 -0.00247529030602 0)
(1.31333559538 -0.00387827154817 0)
(1.31295252522 -0.00608473449657 0)
(1.31214743647 -0.00953897501091 0)
(1.31051517502 -0.0148822207013 0)
(1.30730272718 -0.0229422525116 0)
(1.30130103851 -0.0345587437133 0)
(1.29064332544 -0.0501681774087 0)
(1.27185920692 -0.0685429643144 0)
(0.995736075774 0.0346338599339 0)
(1.04179515145 0.0905689201208 0)
(1.10222840347 0.121549564104 0)
(1.16491414189 0.129605833668 0)
(1.22202569851 0.122009268473 0)
(1.26951896545 0.106019938818 0)
(1.30680229261 0.0870975567265 0)
(1.33499541743 0.0686366819908 0)
(1.35574484702 0.052369840073 0)
(1.37069624828 0.0389256191505 0)
(1.38128284428 0.0282980748407 0)
(1.38866277484 0.0201712789858 0)
(1.3937304406 0.0141175126431 0)
(1.39715672481 0.00970533862184 0)
(1.39943447678 0.00655059810553 0)
(1.40091980884 0.00433445752404 0)
(1.40186636474 0.002804147607 0)
(1.40245239432 0.00176574554521 0)
(1.40280150078 0.00107419735412 0)
(1.40299820687 0.000623237168236 0)
(1.40309943832 0.000336411402062 0)
(1.40314290309 0.000159625423479 0)
(1.4031531762 5.5166526718e-05 0)
(1.40314570052 -2.99593557473e-06 0)
(1.40312995446 -3.21207761721e-05 0)
(1.4031115655 -4.38890024361e-05 0)
(1.40309354069 -4.57600031401e-05 0)
(1.40307740479 -4.24187290028e-05 0)
(1.40306375982 -3.67284995806e-05 0)
(1.40305267936 -3.036580407e-05 0)
(1.4030439621 -2.4245319271e-05 0)
(1.4030372822 -1.88150038646e-05 0)
(1.40303227791 -1.42431675096e-05 0)
(1.40302859872 -1.05320908018e-05 0)
(1.40302594635 -7.58135997294e-06 0)
(1.40302408878 -5.26598344971e-06 0)
(1.40302285002 -3.46304561764e-06 0)
(1.40302208086 -2.02826685928e-06 0)
(1.4030216172 -8.56031627228e-07 0)
(1.40302126485 7.57346132334e-08 0)
(1.4030209544 7.84981239926e-07 0)
(1.4030207664 1.27508736662e-06 0)
(1.40302068887 1.64732711629e-06 0)
(1.4030206291 1.96542331949e-06 0)
(1.40302055164 2.26689174789e-06 0)
(1.40302045013 2.57006589637e-06 0)
(1.40302032435 2.88453753794e-06 0)
(1.40302017782 3.21498588498e-06 0)
(1.40302001306 3.5618527228e-06 0)
(1.40301982274 3.91603482395e-06 0)
(1.40301961672 4.23526936711e-06 0)
(1.40301942748 4.48654770747e-06 0)
(1.40301928308 4.63115994407e-06 0)
(1.40301920839 4.61101432418e-06 0)
(1.40301921945 4.33728494875e-06 0)
(1.40301932431 3.67078213882e-06 0)
(1.40301954728 2.40361438487e-06 0)
(1.4030198621 4.14641218407e-07 0)
(1.40302051698 -2.73098514836e-06 0)
(1.40302171586 -7.77996990548e-06 0)
(1.40302327897 -1.55362259753e-05 0)
(1.40302488194 -2.73268675025e-05 0)
(1.40302606148 -4.501082361e-05 0)
(1.40302607907 -7.15764985124e-05 0)
(1.40302344848 -0.000111615495281 0)
(1.4030154382 -0.000172160429905 0)
(1.40299725101 -0.00026408578539 0)
(1.40296071277 -0.000404268990927 0)
(1.40289190419 -0.000618773212593 0)
(1.40276713579 -0.000948204971896 0)
(1.40254639475 -0.00145587727485 0)
(1.40216336142 -0.00224020815206 0)
(1.40150655756 -0.00345022357331 0)
(1.40038773967 -0.00530958278752 0)
(1.39849375689 -0.0081409910767 0)
(1.39531166483 -0.0123790872218 0)
(1.39002870819 -0.0185345825023 0)
(1.38149724442 -0.0270448582998 0)
(1.36822202953 -0.0379912363019 0)
(1.34781225009 -0.0504809858533 0)
(0.994011532999 0.019235806292 0)
(1.03484764356 0.0523338389426 0)
(1.09199264294 0.0723631259935 0)
(1.15662422442 0.0791292308838 0)
(1.22032119744 0.076104545621 0)
(1.27701949673 0.0673339711037 0)
(1.32424424295 0.0561509034601 0)
(1.36181579931 0.0447990112274 0)
(1.39068537999 0.0345303781382 0)
(1.41226083025 0.0258814334134 0)
(1.42801830975 0.0189465254666 0)
(1.43929893706 0.0135849841361 0)
(1.4472281792 0.00955653686088 0)
(1.45270424462 0.00660011838636 0)
(1.45641907987 0.00447419341075 0)
(1.45889157595 0.00297351663456 0)
(1.46050245089 0.00193277171836 0)
(1.46152585764 0.00122369666511 0)
(1.46215588325 0.000749553350227 0)
(1.46252771823 0.000439020619202 0)
(1.46273400631 0.000240524192758 0)
(1.46283716095 0.000117415179662 0)
(1.46287847616 4.4052735567e-05 0)
(1.46288472833 2.69399383915e-06 0)
(1.46287261687 -1.84417110754e-05 0)
(1.46285227809 -2.7436351804e-05 0)
(1.46282973908 -2.94370570452e-05 0)
(1.46280821291 -2.76877454167e-05 0)
(1.46278922803 -2.41860449394e-05 0)
(1.46277332838 -2.01134482494e-05 0)
(1.46276050534 -1.61183031759e-05 0)
(1.46275046426 -1.25241078147e-05 0)
(1.46274279409 -9.45757802608e-06 0)
(1.46273706198 -6.92970081578e-06 0)
(1.46273286904 -4.88673200104e-06 0)
(1.46272987341 -3.25905214051e-06 0)
(1.4627277877 -1.98322978633e-06 0)
(1.46272635651 -1.01765058982e-06 0)
(1.46272536778 -3.17272015388e-07 0)
(1.46272475662 2.05472362724e-07 0)
(1.46272441121 6.86498035951e-07 0)
(1.46272418099 1.16235669764e-06 0)
(1.46272403176 1.58673987262e-06 0)
(1.46272392345 1.96525284224e-06 0)
(1.46272382671 2.31882237011e-06 0)
(1.46272372332 2.66102198175e-06 0)
(1.46272360116 2.99759189213e-06 0)
(1.46272345286 3.32674018866e-06 0)
(1.46272327445 3.63864569651e-06 0)
(1.46272306289 3.91956397209e-06 0)
(1.46272282022 4.16067650471e-06 0)
(1.46272255352 4.33034425839e-06 0)
(1.46272227009 4.37749143395e-06 0)
(1.46272198048 4.23156213354e-06 0)
(1.46272170375 3.80189599101e-06 0)
(1.46272146221 2.98162261086e-06 0)
(1.46272121025 1.64681780646e-06 0)
(1.46272087035 -3.35118474752e-07 0)
(1.46272032767 -3.18278753307e-06 0)
(1.4627194347 -7.78998221753e-06 0)
(1.46271791253 -1.49370343062e-05 0)
(1.46271508529 -2.57191470688e-05 0)
(1.46270984029 -4.16855942156e-05 0)
(1.46270037326 -6.52225862165e-05 0)
(1.4626836246 -9.99342203385e-05 0)
(1.46265446178 -0.000151216765614 0)
(1.46260438109 -0.000227252622652 0)
(1.46251962846 -0.000340522059236 0)
(1.46237775745 -0.000509645111854 0)
(1.46214195453 -0.000763039525007 0)
(1.46175226729 -0.00114443464257 0)
(1.46111411365 -0.00172151163626 0)
(1.46007645578 -0.00259002820504 0)
(1.45839841485 -0.00388948340376 0)
(1.45570618992 -0.00581221814533 0)
(1.45143458287 -0.00860128190217 0)
(1.44476353092 -0.0125167095502 0)
(1.43462444309 -0.0177387627884 0)
(1.41975859345 -0.0242154470874 0)
(1.39832123148 -0.0314004693675 0)
(0.993269669 0.00617015038154 0)
(1.03158100769 0.0171020444214 0)
(1.08672183419 0.0239906469298 0)
(1.15174556912 0.0265606644943 0)
(1.21823539669 0.0258180579641 0)
(1.2792577849 0.0230488856508 0)
(1.33140141274 0.0193656312848 0)
(1.37377604961 0.0155468581041 0)
(1.40691060497 0.0120449307285 0)
(1.43203321355 0.0090664007306 0)
(1.45060223626 0.00666059636314 0)
(1.46402995328 0.00479009378378 0)
(1.47355026468 0.00337843133978 0)
(1.48017574759 0.00233874178337 0)
(1.48470241194 0.00158891800089 0)
(1.48773633948 0.00105829308472 0)
(1.48972748819 0.000689466885525 0)
(1.4910029291 0.000437642412817 0)
(1.49179602016 0.000268889721114 0)
(1.49227040227 0.000158115206108 0)
(1.49253890649 8.7128993291e-05 0)
(1.49267799608 4.29794551979e-05 0)
(1.49273854333 1.65895663974e-05 0)
(1.4927537313 1.66879333799e-06 0)
(1.49274450822 -6.06439995899e-06 0)
(1.49272373348 -9.41027564067e-06 0)
(1.49269910232 -1.02170765737e-05 0)
(1.49267484298 -9.65417257184e-06 0)
(1.49265305322 -8.4403456023e-06 0)
(1.49263457434 -6.9938981807e-06 0)
(1.49261952888 -5.55488162998e-06 0)
(1.49260765435 -4.24343322836e-06 0)
(1.4925985208 -3.10748955305e-06 0)
(1.4925916522 -2.15328664974e-06 0)
(1.49258659457 -1.36445284177e-06 0)
(1.49258294824 -7.18853072794e-07 0)
(1.49258037829 -1.9464791896e-07 0)
(1.49257861593 2.30413102847e-07 0)
(1.49257745592 6.01535703611e-07 0)
(1.49257672016 9.71659542966e-07 0)
(1.49257625443 1.27822759651e-06 0)
(1.49257596643 1.56357379369e-06 0)
(1.49257579736 1.84460857673e-06 0)
(1.49257569389 2.13131390326e-06 0)
(1.49257561708 2.43093937598e-06 0)
(1.49257554156 2.74654610045e-06 0)
(1.49257545009 3.07772752537e-06 0)
(1.49257533036 3.42041716807e-06 0)
(1.4925751725 3.76563094459e-06 0)
(1.49257496735 4.09843840489e-06 0)
(1.49257470812 4.39821738588e-06 0)
(1.49257439028 4.63238063969e-06 0)
(1.49257400741 4.75563592424e-06 0)
(1.49257354703 4.70587536698e-06 0)
(1.49257298988 4.39685200407e-06 0)
(1.49257230885 3.70920679772e-06 0)
(1.49257149112 2.48883982e-06 0)
(1.4925703978 6.67984357187e-07 0)
(1.49256861569 -2.0096531223e-06 0)
(1.49256585552 -6.17338680256e-06 0)
(1.49256171376 -1.23566208628e-05 0)
(1.49255516294 -2.13375888956e-05 0)
(1.49254459566 -3.42063247467e-05 0)
(1.49252747268 -5.25192254087e-05 0)
(1.4924996818 -7.84801702807e-05 0)
(1.49245453019 -0.000115126814361 0)
(1.4923811443 -0.000166830953533 0)
(1.49226245322 -0.000240104282085 0)
(1.49207111089 -0.000343462759717 0)
(1.49176254672 -0.00048944053336 0)
(1.4912644635 -0.000698168820832 0)
(1.49046810657 -0.00100344832435 0)
(1.4892041636 -0.00143779698254 0)
(1.4872068745 -0.00204868626024 0)
(1.4840778883 -0.00289746376446 0)
(1.4792375459 -0.00405161668354 0)
(1.47187926428 -0.00556541631089 0)
(1.4609899002 -0.0074403533531 0)
(1.44542279573 -0.00958237143029 0)
(1.42356931128 -0.0117429701817 0)
(0.993270466831 -0.00616840183764 0)
(1.03158099039 -0.0171003777584 0)
(1.08672176803 -0.0239897637774 0)
(1.1517456069 -0.0265602487749 0)
(1.21823547462 -0.0258179946589 0)
(1.27925788694 -0.0230491113315 0)
(1.33140153884 -0.0193660480192 0)