/*--------------------------------*- C++ -*----------------------------------*\
| =========                 |                                                 |
| \\      /  F ield         | OpenFOAM: The Open Source CFD Toolbox           |
|  \\    /   O peration     | Version:  2106                                  |
|   \\  /    A nd           | Website:  www.openfoam.com                      |
|    \\/     M anipulation  |                                                 |
\*---------------------------------------------------------------------------*/
FoamFile
{
    version     2.0;
    format      ascii;
    arch        "LSB;label=32;scalar=64";
    class       volVectorField;
    location    "0.01";
    object      U;
}
// * * * * * * * * * * * * * * * * * * * * * * * * * * * * * * * * * * * * * //

dimensions      [0 1 -1 0 0 0 0];

internalField   nonuniform List<vector> 
9600
(
(0.675000169305 0.157942284028 0)
(0.564235497764 0.10192058015 0)
(0.386056613321 0.0497463232098 0)
(0.295139139804 0.0226053771559 0)
(0.251787371829 0.00989952375117 0)
(0.229775468603 0.00432219503198 0)
(0.218561775139 0.00192171373125 0)
(0.212844711418 0.000879993484643 0)
(0.209871706968 0.000416505440422 0)
(0.208288829884 0.000202069878394 0)
(0.207432054802 9.84262536753e-05 0)
(0.206964932085 4.65784270811e-05 0)
(0.206711020319 2.02541080523e-05 0)
(0.206575059077 7.04218217281e-06 0)
(0.206504408963 7.13998752272e-07 0)
(0.206469570424 -2.01128831014e-06 0)
(0.206453955773 -2.90384189333e-06 0)
(0.206448299402 -2.92442159161e-06 0)
(0.206447468512 -2.58563322623e-06 0)
(0.206448784434 -2.06553791783e-06 0)
(0.206450855737 -1.60758035633e-06 0)
(0.206452943513 -1.2186217306e-06 0)
(0.206454781295 -9.11407962006e-07 0)
(0.20645628652 -6.72506983318e-07 0)
(0.206457461755 -4.94081880685e-07 0)
(0.206458352037 -3.62076783404e-07 0)
(0.206459011957 -2.66240442311e-07 0)
(0.206459492904 -1.98353113135e-07 0)
(0.206459838643 -1.50858238184e-07 0)
(0.206460084041 -1.17457293572e-07 0)
(0.206460255529 -9.35873794201e-08 0)
(0.206460373566 -7.6453557688e-08 0)
(0.206460454463 -6.43899146343e-08 0)
(0.206460510504 -5.58488306495e-08 0)
(0.20646054975 -4.94528448869e-08 0)
(0.206460576988 -4.4978239999e-08 0)
(0.206460594846 -4.34391846657e-08 0)
(0.206460605721 -4.40645504299e-08 0)
(0.206460612317 -4.61554951354e-08 0)
(0.206460616529 -4.9222063114e-08 0)
(0.206460619304 -5.27898307093e-08 0)
(0.206460620969 -5.68584432302e-08 0)
(0.206460621694 -6.17502648473e-08 0)
(0.206460621828 -6.72845105092e-08 0)
(0.206460621629 -7.32041185651e-08 0)
(0.20646062101 -7.94988080084e-08 0)
(0.206460619842 -8.63172988953e-08 0)
(0.206460618343 -9.36915772018e-08 0)
(0.206460616847 -1.01536123154e-07 0)
(0.206460615296 -1.0986049501e-07 0)
(0.206460613308 -1.18799788616e-07 0)
(0.206460610697 -1.28457891462e-07 0)
(0.206460607638 -1.38825231289e-07 0)
(0.206460604307 -1.49871387819e-07 0)
(0.206460600601 -1.6162285742e-07 0)
(0.206460596362 -1.74166958621e-07 0)
(0.206460591688 -1.87607683749e-07 0)
(0.206460586959 -2.01993532669e-07 0)
(0.206460582559 -2.17323072723e-07 0)
(0.206460578575 -2.33603062927e-07 0)
(0.206460574763 -2.50887143698e-07 0)
(0.20646057083 -2.6926306132e-07 0)
(0.206460566693 -2.88812261931e-07 0)
(0.206460562453 -3.09591584634e-07 0)
(0.20646055816 -3.31657051714e-07 0)
(0.206460553692 -3.55086119668e-07 0)
(0.206460548867 -3.79955309002e-07 0)
(0.206460543632 -4.06301733834e-07 0)
(0.206460538063 -4.34133221029e-07 0)
(0.206460532209 -4.63488383799e-07 0)
(0.206460526004 -4.94475611502e-07 0)
(0.206460519357 -5.27240226806e-07 0)
(0.206460512297 -5.61896366577e-07 0)
(0.206460504952 -5.98492630514e-07 0)
(0.206460497387 -6.37046160537e-07 0)
(0.206460489463 -6.77584919171e-07 0)
(0.206460480927 -7.20204915615e-07 0)
(0.206460471686 -7.65051406638e-07 0)
(0.206460461963 -8.12243434377e-07 0)
(0.206460452148 -8.6181572068e-07 0)
(0.206460442456 -9.13743769629e-07 0)
(0.206460432729 -9.68043279385e-07 0)
(0.206460422611 -1.02484297101e-06 0)
(0.206460411935 -1.08434103367e-06 0)
(0.206460400912 -1.14666822863e-06 0)
(0.206460389924 -1.21180730049e-06 0)
(0.206460379119 -1.27966888103e-06 0)
(0.206460368229 -1.35025310156e-06 0)
(0.206460356832 -1.42371958115e-06 0)
(0.20646034477 -1.50027201241e-06 0)
(0.206460332319 -1.57997475707e-06 0)
(0.206460319911 -1.66272786309e-06 0)
(0.206460307712 -1.74843041394e-06 0)
(0.206460295453 -1.83715420641e-06 0)
(0.206460282707 -1.92911442764e-06 0)
(0.206460269331 -2.02445171766e-06 0)
(0.206460255599 -2.1230738562e-06 0)
(0.206460241892 -2.22475018681e-06 0)
(0.206460228303 -2.32935297314e-06 0)
(0.206460214614 -2.43695894947e-06 0)
(0.206460200688 -2.54768332225e-06 0)
(0.206460186772 -2.66144870299e-06 0)
(0.206460173359 -2.77798012667e-06 0)
(0.206460160807 -2.8969723997e-06 0)
(0.206460149215 -3.01818777724e-06 0)
(0.206460138686 -3.14140445909e-06 0)
(0.206460129863 -3.26646341063e-06 0)
(0.206460123979 -3.39300550969e-06 0)
(0.206460122284 -3.52030587837e-06 0)
(0.206460125869 -3.64709825463e-06 0)
(0.20646013697 -3.7721394597e-06 0)
(0.206460159408 -3.89513677393e-06 0)
(0.20646019733 -4.01710219321e-06 0)
(0.206460255619 -4.13962702248e-06 0)
(0.206460341258 -4.26437484729e-06 0)
(0.206460463451 -4.39460356983e-06 0)
(0.20646063244 -4.53936440201e-06 0)
(0.206460865222 -4.71504937005e-06 0)
(0.206461183752 -4.9138917832e-06 0)
(0.206461613708 -5.12944706889e-06 0)
(0.20646219059 -5.36043943206e-06 0)
(0.206462960519 -5.6081623862e-06 0)
(0.206463982012 -5.87515471577e-06 0)
(0.206465330817 -6.16454597548e-06 0)
(0.206467106481 -6.48072454629e-06 0)
(0.206469442602 -6.83415788902e-06 0)
(0.206472529193 -7.2592076131e-06 0)
(0.20647661489 -7.85665865969e-06 0)
(0.206481924622 -8.75776424476e-06 0)
(0.20648877413 -9.87334947925e-06 0)
(0.206497652887 -1.1163492318e-05 0)
(0.206509166675 -1.26363676258e-05 0)
(0.206524080862 -1.43209128481e-05 0)
(0.206543376305 -1.62605001104e-05 0)
(0.206568311058 -1.85139315946e-05 0)
(0.2066004997 -2.11574219358e-05 0)
(0.206642017002 -2.42904177689e-05 0)
(0.206695530534 -2.8046434276e-05 0)
(0.206764471653 -3.26039202838e-05 0)
(0.206853257762 -3.81962268629e-05 0)
(0.206967582144 -4.51283336329e-05 0)
(0.207114797974 -5.38042047596e-05 0)
(0.207304430923 -6.47612555408e-05 0)
(0.207548859229 -7.87140103743e-05 0)
(0.207864227875 -9.66164828047e-05 0)
(0.208271710765 -0.000119752828436 0)
(0.208799270182 -0.000149870218457 0)
(0.209484128033 -0.000189373702487 0)
(0.210376326111 -0.000241611807808 0)
(0.21154399365 -0.000311315735375 0)
(0.213081314709 -0.000405300469538 0)
(0.215120953965 -0.000533644116793 0)
(0.217854359503 -0.000712106745585 0)
(0.22156853698 -0.000969099056987 0)
(0.226725288964 -0.00137169393884 0)
(0.234147757462 -0.00212778254533 0)
(0.245537637039 -0.00398453713721 0)
(0.265774002799 -0.0098879847872 0)
(0.311824022374 -0.0322400290574 0)
(0.422321599245 -0.124096914327 0)
(0.977252678868 0.296644176176 0)
(0.966418650957 0.246246689456 0)
(0.834872000389 0.150222925558 0)
(0.728049094689 0.0843904986783 0)
(0.659860411828 0.0453204849286 0)
(0.618115483414 0.0238551217078 0)
(0.593628542414 0.0125219672216 0)
(0.579695837472 0.00662533792712 0)
(0.571829755667 0.00355433850956 0)
(0.567370989543 0.00193531386797 0)
(0.564826617086 0.00106566103618 0)
(0.563366109509 0.000589462796456 0)
(0.562525093209 0.000324819557248 0)
(0.562041234532 0.000176622632023 0)
(0.561764397602 9.36802691033e-05 0)
(0.561607666016 4.7668265616e-05 0)
(0.561520362792 2.25932383362e-05 0)
(0.561472873101 9.31741124643e-06 0)
(0.561447955641 2.60328916159e-06 0)
(0.561435568052 -4.8214924553e-07 0)
(0.56142995479 -1.72454688545e-06 0)
(0.561427891541 -2.04006575873e-06 0)
(0.561427569513 -1.90995822677e-06 0)
(0.561428023046 -1.61350305889e-06 0)
(0.561428741179 -1.29320570759e-06 0)
(0.561429483012 -9.97914492869e-07 0)
(0.56143014148 -7.49945212589e-07 0)
(0.561430683215 -5.53271242111e-07 0)
(0.561431109308 -4.02938162878e-07 0)
(0.561431433522 -2.90107754923e-07 0)
(0.561431672962 -2.0608592505e-07 0)
(0.561431845502 -1.44653509813e-07 0)
(0.561431968455 -1.01476088572e-07 0)
(0.56143205632 -7.19120056753e-08 0)
(0.56143211878 -5.09758031199e-08 0)
(0.561432161402 -3.55226498187e-08 0)
(0.561432188854 -2.52009270393e-08 0)
(0.561432205752 -1.94094531945e-08 0)
(0.561432215598 -1.6985147951e-08 0)
(0.56143222125 -1.61569310477e-08 0)
(0.561432224346 -1.56358060929e-08 0)
(0.561432225118 -1.53538244988e-08 0)
(0.561432223935 -1.54424349108e-08 0)
(0.56143222167 -1.5785759133e-08 0)
(0.561432218704 -1.60352561515e-08 0)
(0.561432214827 -1.63216299384e-08 0)
(0.561432209918 -1.70918370655e-08 0)
(0.561432204445 -1.84230195019e-08 0)
(0.5614321989 -1.99316052699e-08 0)
(0.561432193116 -2.13423211135e-08 0)
(0.561432186554 -2.27742320553e-08 0)
(0.561432179062 -2.44186039022e-08 0)
(0.561432170939 -2.62025148789e-08 0)
(0.561432162369 -2.78589604986e-08 0)
(0.56143215311 -2.93336720377e-08 0)
(0.561432142847 -3.10034936519e-08 0)
(0.561432131672 -3.30927648885e-08 0)
(0.561432120104 -3.56416919113e-08 0)
(0.561432108632 -3.84415297482e-08 0)
(0.561432097296 -4.12063789442e-08 0)
(0.56143208572 -4.3812172148e-08 0)
(0.56143207353 -4.6359820292e-08 0)
(0.561432060657 -4.90286707775e-08 0)
(0.561432047231 -5.19041944954e-08 0)
(0.561432033248 -5.49720345881e-08 0)
(0.561432018485 -5.82269529283e-08 0)
(0.561432002738 -6.17051587902e-08 0)
(0.561431986055 -6.54043627595e-08 0)
(0.561431968625 -6.92474607423e-08 0)
(0.561431950495 -7.31750642604e-08 0)
(0.561431931467 -7.72549082982e-08 0)
(0.561431911318 -8.16513032394e-08 0)
(0.561431890035 -8.6472004366e-08 0)
(0.561431867792 -9.16432937588e-08 0)
(0.561431844693 -9.69933372375e-08 0)
(0.561431820562 -1.02360420749e-07 0)
(0.561431795063 -1.07850662545e-07 0)
(0.561431768092 -1.1371980551e-07 0)
(0.561431739964 -1.20168397927e-07 0)
(0.561431711178 -1.27102937558e-07 0)
(0.561431681967 -1.34180322761e-07 0)
(0.561431652093 -1.41146477775e-07 0)
(0.561431621109 -1.48128962586e-07 0)
(0.561431588852 -1.55531700173e-07 0)
(0.56143155564 -1.63601763985e-07 0)
(0.56143152197 -1.72145586224e-07 0)
(0.561431488011 -1.80735167419e-07 0)
(0.561431453426 -1.89194269529e-07 0)
(0.561431417723 -1.97814959394e-07 0)
(0.561431380778 -2.07033269452e-07 0)
(0.561431342978 -2.1696136819e-07 0)
(0.561431304856 -2.273181013e-07 0)
(0.561431266603 -2.3778349704e-07 0)
(0.561431227935 -2.48371106462e-07 0)
(0.56143118846 -2.59384581209e-07 0)
(0.561431148157 -2.7103282774e-07 0)
(0.561431107458 -2.83194423789e-07 0)
(0.56143106688 -2.95630729715e-07 0)
(0.561431026656 -3.08382701337e-07 0)
(0.561430986848 -3.2184790729e-07 0)
(0.561430947795 -3.36381020971e-07 0)
(0.561430910312 -3.52001150768e-07 0)
(0.56143087547 -3.68613204244e-07 0)
(0.56143084433 -3.86467581049e-07 0)
(0.561430817978 -4.06307928141e-07 0)
(0.561430797683 -4.28857274716e-07 0)
(0.561430785739 -4.54742577807e-07 0)
(0.561430785903 -4.84356135946e-07 0)
(0.561430802856 -5.1856623716e-07 0)
(0.561430841676 -5.59772586498e-07 0)
(0.561430909214 -6.13264964923e-07 0)
(0.561431014954 -6.80461290658e-07 0)
(0.561431170543 -7.59298728866e-07 0)
(0.561431391352 -8.50484044921e-07 0)
(0.561431697225 -9.55211007222e-07 0)
(0.561432109665 -1.07306755071e-06 0)
(0.56143265126 -1.19800255778e-06 0)
(0.56143338613 -1.31403550516e-06 0)
(0.561434396236 -1.44346083325e-06 0)
(0.561435754405 -1.60612856711e-06 0)
(0.561437557449 -1.81746209867e-06 0)
(0.561439935776 -2.09554300344e-06 0)
(0.561443058712 -2.46349779099e-06 0)
(0.561447144877 -2.95036240715e-06 0)
(0.561452475171 -3.59392555788e-06 0)
(0.561459405703 -4.44705010575e-06 0)
(0.561468380247 -5.59281290704e-06 0)
(0.561479974965 -7.180806366e-06 0)
(0.561495022383 -9.41342156456e-06 0)
(0.561514574067 -1.23681278039e-05 0)
(0.561539867329 -1.61922832226e-05 0)
(0.56157250193 -2.11122518626e-05 0)
(0.561614542111 -2.74277134902e-05 0)
(0.561668633051 -3.55256505683e-05 0)
(0.561738158533 -4.59025604839e-05 0)
(0.561827445625 -5.91916112759e-05 0)
(0.561942027693 -7.62020739156e-05 0)
(0.562088986909 -9.79758058425e-05 0)
(0.562277400097 -0.000125859184731 0)
(0.562518911394 -0.000161594306428 0)
(0.562828473317 -0.000207441872454 0)
(0.563225327532 -0.000266349650286 0)
(0.563734310297 -0.000342184799289 0)
(0.564387585534 -0.000440056546228 0)
(0.565226974985 -0.00056676498144 0)
(0.566307153994 -0.000731444520808 0)
(0.567700095331 -0.000946522011926 0)
(0.56950134268 -0.00122915750305 0)
(0.571839069407 -0.00160345454009 0)
(0.57488751607 -0.00210400338841 0)
(0.578887549399 -0.00278180310015 0)
(0.584179290114 -0.0037146917541 0)
(0.591256137945 -0.00502736605141 0)
(0.600859763964 -0.00693500493277 0)
(0.614161657002 -0.00985407427543 0)
(0.633113028656 -0.0147158977643 0)
(0.661065264123 -0.0238814540468 0)
(0.704287088287 -0.0439287712204 0)
(0.776044097132 -0.0946171730958 0)
(0.88918743353 -0.232243384659 0)
(1.03424018396 0.236845925202 0)
(1.08808210901 0.282474517312 0)
(1.04989258431 0.218262733056 0)
(0.989812079291 0.1463711807 0)
(0.937985957254 0.0902939750694 0)
(0.900088779604 0.0529430515215 0)
(0.874954375808 0.0302167110783 0)
(0.859256233596 0.0170610124182 0)
(0.849739993149 0.0096306727928 0)
(0.84404396078 0.00546563972648 0)
(0.840650349461 0.00312223981502 0)
(0.838630498593 0.00179160007992 0)
(0.837428304169 0.00102874323312 0)
(0.836713378306 0.000588403435502 0)
(0.836289336605 0.000333565097265 0)
(0.836039009884 0.000186367052654 0)
(0.83589226269 0.000101890992973 0)
(0.835807056063 5.39521171962e-05 0)
(0.835758214946 2.72027311482e-05 0)
(0.835730678162 1.26034931645e-05 0)
(0.835715491531 4.92549042806e-06 0)
(0.835707394801 1.0886768317e-06 0)
(0.835703280921 -6.4773281766e-07 0)
(0.835701333836 -1.29631642432e-06 0)
(0.835700545247 -1.39625843271e-06 0)
(0.835700348739 -1.25862474369e-06 0)
(0.835700421633 -1.04025083261e-06 0)
(0.835700599224 -8.1472377426e-07 0)
(0.83570079924 -6.14517792747e-07 0)
(0.83570098328 -4.49543186965e-07 0)
(0.83570113642 -3.18889965089e-07 0)
(0.83570125655 -2.19359742627e-07 0)
(0.835701347552 -1.47731402155e-07 0)
(0.835701415122 -9.84171295737e-08 0)
(0.835701464568 -6.35304488757e-08 0)
(0.835701499899 -3.68837177665e-08 0)
(0.835701523859 -1.65377993915e-08 0)
(0.835701538818 -3.15682614206e-09 0)
(0.835701547466 4.36887471434e-09 0)
(0.835701552275 8.99442613313e-09 0)
(0.835701554495 1.26525877963e-08 0)
(0.835701554508 1.5561261267e-08 0)
(0.835701552607 1.78894892005e-08 0)
(0.835701549328 2.00507805306e-08 0)
(0.83570154504 2.24162768738e-08 0)
(0.835701539574 2.48549355996e-08 0)
(0.835701533 2.70887673601e-08 0)
(0.835701525913 2.91496517402e-08 0)
(0.835701518716 3.12860910849e-08 0)
(0.835701511129 3.36503460587e-08 0)
(0.835701502682 3.61965239724e-08 0)
(0.835701493335 3.88550327084e-08 0)
(0.835701483366 4.1731776261e-08 0)
(0.835701472808 4.50433857865e-08 0)
(0.83570146123 4.89123104797e-08 0)
(0.83570144849 5.33203641135e-08 0)
(0.835701434912 5.78629155461e-08 0)
(0.835701420881 6.23717236702e-08 0)
(0.835701406716 6.70524556797e-08 0)
(0.835701392408 7.22724920155e-08 0)
(0.835701377681 7.8244741062e-08 0)
(0.835701362279 8.48928283563e-08 0)
(0.835701346124 9.19893291161e-08 0)
(0.835701329206 9.93893559338e-08 0)
(0.835701311403 1.07109728209e-07 0)
(0.8357012925 1.1523031056e-07 0)
(0.835701272384 1.23815482639e-07 0)
(0.835701251132 1.32945633851e-07 0)
(0.835701228874 1.42739762463e-07 0)
(0.835701205594 1.53276484256e-07 0)
(0.835701181123 1.64493942758e-07 0)
(0.835701155319 1.76222343817e-07 0)
(0.835701128216 1.8834536606e-07 0)
(0.835701099923 2.00976998396e-07 0)
(0.835701070477 2.14361760439e-07 0)
(0.835701039694 2.28855701989e-07 0)
(0.835701007308 2.44495103148e-07 0)
(0.835700973289 2.60904187345e-07 0)
(0.835700937891 2.77726210781e-07 0)
(0.835700901498 2.95061288147e-07 0)
(0.835700864304 3.13436137654e-07 0)
(0.835700826156 3.33301782832e-07 0)
(0.835700786737 3.5455143254e-07 0)
(0.835700745916 3.76627887373e-07 0)
(0.835700703908 3.9915622652e-07 0)
(0.835700661069 4.22407653212e-07 0)
(0.835700617525 4.4705705351e-07 0)
(0.835700573034 4.73501256304e-07 0)
(0.83570052727 5.01480693297e-07 0)
(0.835700480212 5.30419783727e-07 0)
(0.835700432202 5.60100044112e-07 0)
(0.835700383669 5.90832713569e-07 0)
(0.835700334802 6.2307376124e-07 0)
(0.835700285479 6.56951886877e-07 0)
(0.835700235546 6.92251273054e-07 0)
(0.835700185137 7.2878801206e-07 0)
(0.835700134676 7.66658565954e-07 0)
(0.835700084591 8.0607276121e-07 0)
(0.835700035168 8.47050100855e-07 0)
(0.835699986848 8.89360622303e-07 0)
(0.835699940571 9.32770917665e-07 0)
(0.835699897631 9.77269997376e-07 0)
(0.835699859338 1.02284113323e-06 0)
(0.835699827054 1.06937564136e-06 0)
(0.835699802874 1.11711737056e-06 0)
(0.835699789802 1.16681197896e-06 0)
(0.835699792035 1.21650331889e-06 0)
(0.835699814658 1.2643343312e-06 0)
(0.835699862547 1.30905170286e-06 0)
(0.835699940418 1.35091706011e-06 0)
(0.835700062172 1.39335035659e-06 0)
(0.835700252216 1.43248526314e-06 0)
(0.835700532845 1.45717844589e-06 0)
(0.83570092745 1.4581891585e-06 0)
(0.835701470538 1.42683858659e-06 0)
(0.835702211611 1.35470874645e-06 0)
(0.835703218411 1.23718537695e-06 0)
(0.835704548462 1.07856121964e-06 0)
(0.835706272829 8.42627208419e-07 0)
(0.835708519574 4.89258923235e-07 0)
(0.835711450276 -2.43251514298e-08 0)
(0.835715265101 -7.51252768125e-07 0)
(0.835720219193 -1.75931771173e-06 0)
(0.835726640374 -3.13536029126e-06 0)
(0.835734949297 -4.99215313471e-06 0)
(0.835745685134 -7.47612578874e-06 0)
(0.835759535668 -1.07719031816e-05 0)
(0.835777372213 -1.50995474951e-05 0)
(0.835800312934 -2.07347815161e-05 0)
(0.835829788222 -2.81075003413e-05 0)
(0.835867619001 -3.7745881108e-05 0)
(0.83591613635 -5.03090147319e-05 0)
(0.835978310518 -6.66337853739e-05 0)
(0.836057924245 -8.77881542238e-05 0)
(0.836159800138 -0.000115136809759 0)
(0.836290087364 -0.000150424034646 0)
(0.83645662395 -0.000195880102384 0)
(0.836669405896 -0.000254360448609 0)
(0.836941197025 -0.000329532601261 0)
(0.837288313177 -0.00042612684449 0)
(0.837731633861 -0.000550264180373 0)
(0.838297925394 -0.000709891783787 0)
(0.839021585226 -0.000915386645013 0)
(0.839946952808 -0.00118039918796 0)
(0.841131396031 -0.00152302668323 0)
(0.842649483175 -0.0019674872849 0)
(0.844598710289 -0.00254658451771 0)
(0.847107487416 -0.00330540315691 0)
(0.850346454886 -0.00430698876972 0)
(0.85454486556 -0.00564138089731 0)
(0.860014906478 -0.0074405407377 0)
(0.867188745388 -0.00990417579288 0)
(0.876676294468 -0.013347066528 0)
(0.889357213372 -0.0182922518313 0)
(0.906530964764 -0.025670770607 0)
(0.930145863931 -0.03728267243 0)
(0.963021921992 -0.0568704362331 0)
(1.00889388796 -0.092496842314 0)
(1.07186768836 -0.161616459266 0)
(1.1451908451 -0.298268269544 0)
(1.03413873107 0.167001523431 0)
(1.10594478634 0.257777622942 0)
(1.12925805676 0.233648378665 0)
(1.11916255245 0.175636194409 0)
(1.09742661018 0.118547417 0)
(1.07577202038 0.074787192468 0)
(1.05864355745 0.0453022512774 0)
(1.04657400021 0.0268410838293 0)
(1.03858915195 0.0157508324327 0)
(1.03349049115 0.00922423892746 0)
(1.03030036837 0.00540927051228 0)
(1.02832751914 0.00317706355236 0)
(1.02711575041 0.00186588828044 0)
(1.02637487399 0.00109301312063 0)
(1.02592368982 0.000636772317505 0)
(1.02565004717 0.000367767406907 0)
(1.02548485477 0.000209791904323 0)
(1.02538568035 0.000117655500473 0)
(1.02532653521 6.44506636143e-05 0)
(1.02529154161 3.41312803202e-05 0)
(1.02527103627 1.7173961299e-05 0)
(1.02525916941 7.92660517114e-06 0)
(1.02525240458 3.05149698213e-06 0)
(1.02524863004 6.19549177776e-07 0)
(1.02524658131 -4.73309233369e-07 0)
(1.02524550302 -8.7364173737e-07 0)
(1.02524496993 -9.30268604516e-07 0)
(1.02524473434 -8.39619466172e-07 0)
(1.02524465276 -6.98723660295e-07 0)
(1.02524464525 -5.53741794205e-07 0)
(1.02524466936 -4.23267800274e-07 0)
(1.02524470346 -3.15341444942e-07 0)
(1.02524473683 -2.33227031108e-07 0)
(1.02524476502 -1.73822909005e-07 0)
(1.0252447872 -1.29359442658e-07 0)
(1.02524480378 -9.38679449897e-08 0)
(1.02524481516 -6.65493522133e-08 0)
(1.02524482186 -4.84183679827e-08 0)
(1.02524482487 -3.81616971811e-08 0)
(1.02524482526 -3.25096939936e-08 0)
(1.0252448236 -2.90521930543e-08 0)
(1.02524482023 -2.71339161615e-08 0)
(1.02524481558 -2.66852942464e-08 0)
(1.02524480999 -2.70139114523e-08 0)
(1.02524480364 -2.75270707517e-08 0)
(1.02524479661 -2.82540515876e-08 0)
(1.025244789 -2.96300918976e-08 0)
(1.02524478079 -3.18919663883e-08 0)
(1.02524477178 -3.47974929517e-08 0)
(1.0252447618 -3.79048454191e-08 0)
(1.02524475088 -4.10284967303e-08 0)
(1.0252447391 -4.42820323076e-08 0)
(1.02524472642 -4.7712457428e-08 0)
(1.0252447128 -5.11261303046e-08 0)
(1.02524469841 -5.43264971777e-08 0)
(1.02524468323 -5.73676046987e-08 0)
(1.02524466717 -6.08872706639e-08 0)
(1.02524465031 -6.53182435383e-08 0)
(1.02524463267 -7.04826446972e-08 0)
(1.02524461423 -7.57371473186e-08 0)
(1.02524459501 -8.05282969953e-08 0)
(1.02524457507 -8.48517863382e-08 0)
(1.02524455439 -8.91783348228e-08 0)
(1.02524453279 -9.39700685179e-08 0)
(1.02524451006 -9.93259529457e-08 0)
(1.02524448599 -1.0507153843e-07 0)
(1.02524446055 -1.11062208798e-07 0)
(1.02524443374 -1.17310283223e-07 0)
(1.02524440557 -1.23886235266e-07 0)
(1.02524437598 -1.30836789866e-07 0)
(1.0252443449 -1.3822902941e-07 0)
(1.02524431228 -1.46207969365e-07 0)
(1.02524427808 -1.5489185327e-07 0)
(1.02524424227 -1.64214120775e-07 0)
(1.02524420489 -1.73758939783e-07 0)
(1.02524416601 -1.83329480745e-07 0)
(1.02524412548 -1.93034802847e-07 0)
(1.02524408323 -2.03371700502e-07 0)
(1.02524403932 -2.14851925485e-07 0)
(1.0252439939 -2.27452768232e-07 0)
(1.02524394705 -2.40528804368e-07 0)
(1.02524389883 -2.53447612352e-07 0)
(1.02524384924 -2.66278204741e-07 0)
(1.02524379827 -2.79731595944e-07 0)
(1.02524374594 -2.94374548342e-07 0)
(1.02524369235 -3.0999123996e-07 0)
(1.02524363761 -3.2583307806e-07 0)
(1.02524358174 -3.4149385475e-07 0)
(1.02524352473 -3.57446739295e-07 0)
(1.02524346662 -3.74517295187e-07 0)
(1.02524340758 -3.92937578564e-07 0)
(1.02524334778 -4.124869822e-07 0)
(1.02524328742 -4.32787264193e-07 0)
(1.02524322667 -4.5369799369e-07 0)
(1.02524316579 -4.75362714911e-07 0)
(1.02524310513 -4.97979793346e-07 0)
(1.02524304509 -5.21691980079e-07 0)
(1.02524298611 -5.46740331948e-07 0)
(1.02524292874 -5.73681524838e-07 0)
(1.02524287392 -6.03507802804e-07 0)
(1.02524282307 -6.36664506291e-07 0)
(1.02524277786 -6.73329797706e-07 0)
(1.02524274027 -7.14082420419e-07 0)
(1.02524271345 -7.6029737045e-07 0)
(1.02524270201 -8.14642203533e-07 0)
(1.02524270864 -8.81158373572e-07 0)
(1.02524273666 -9.60970400421e-07 0)
(1.0252427936 -1.05574186536e-06 0)
(1.02524289027 -1.16751040968e-06 0)
(1.02524304235 -1.29720817481e-06 0)
(1.0252432638 -1.44297445159e-06 0)
(1.02524356565 -1.61082810784e-06 0)
(1.02524397048 -1.81552930225e-06 0)
(1.02524451351 -2.0719116265e-06 0)
(1.02524523743 -2.39699960857e-06 0)
(1.02524619605 -2.81341477089e-06 0)
(1.02524746019 -3.3557166672e-06 0)
(1.02524911765 -4.0765345292e-06 0)
(1.02525127969 -5.01325892681e-06 0)
(1.02525409252 -6.21940235701e-06 0)
(1.02525774043 -7.770831384e-06 0)
(1.02526245836 -9.76633535314e-06 0)
(1.0252685481 -1.23320859663e-05 0)
(1.02527639618 -1.56295521859e-05 0)
(1.02528649597 -1.98675129419e-05 0)
(1.02529947715 -2.53162148282e-05 0)
(1.02531614231 -3.23235274305e-05 0)
(1.02533751044 -4.13313760052e-05 0)
(1.02536487767 -5.28918074693e-05 0)
(1.02539989284 -6.77081871258e-05 0)
(1.02544465479 -8.66749355835e-05 0)
(1.02550183829 -0.000110940751422 0)
(1.02557484272 -0.000141977002151 0)
(1.02566798631 -0.000181661690693 0)
(1.02578675859 -0.000232391896563 0)
(1.02593814013 -0.000297233308937 0)
(1.02613100676 -0.000380110001452 0)
(1.02637664548 -0.000486044629264 0)
(1.0266894165 -0.000621476902221 0)
(1.02708760672 -0.000794691343009 0)
(1.02759453089 -0.00101638075718 0)
(1.02823995066 -0.00130039359405 0)
(1.02906191762 -0.00166475178413 0)
(1.03010919532 -0.00213305471456 0)
(1.03144445279 -0.00273643260873 0)
(1.03314849422 -0.00351631152288 0)
(1.0353259333 -0.00452841127677 0)
(1.03811289102 -0.00584865872813 0)
(1.04168752169 -0.00758213897981 0)
(1.04628455567 -0.00987700090809 0)
(1.05221558372 -0.0129467531168 0)
(1.0598974334 -0.0171073101282 0)
(1.06989129364 -0.0228410444948 0)
(1.08295385597 -0.0309125994042 0)
(1.10009547088 -0.042588715519 0)
(1.12260944119 -0.0600732476802 0)
(1.15190308336 -0.0873555555205 0)
(1.18874378231 -0.131652921035 0)
(1.23123241844 -0.205213471874 0)
(1.26651959411 -0.324631663073 0)
(1.02393930323 0.114044429423 0)
(1.0898846785 0.21001975496 0)
(1.1412999137 0.213080990308 0)
(1.16536742349 0.174263360802 0)
(1.1707241207 0.126044133558 0)
(1.16737853398 0.0842971822899 0)
(1.16146569528 0.0536305445683 0)
(1.15584568126 0.0330981407373 0)
(1.15145042831 0.0200834613997 0)
(1.14832550665 0.0120858482493 0)
(1.1462198586 0.00724685629306 0)
(1.14484571006 0.00433716547261 0)
(1.14396630269 0.00259054809184 0)
(1.14341044182 0.00154246655472 0)
(1.14306201883 0.000914048409771 0)
(1.14284495562 0.000538037217285 0)
(1.14271039279 0.000313884317098 0)
(1.14262733894 0.00018099074085 0)
(1.1425762961 0.000102785125681 0)
(1.14254506456 5.72025839715e-05 0)
(1.14252604558 3.09632985961e-05 0)
(1.14251452616 1.60998549835e-05 0)
(1.14250759073 7.85653503407e-06 0)
(1.14250344609 3.4214250449e-06 0)
(1.14250099004 1.12694567038e-06 0)
(1.14249954868 1.97018539928e-08 0)
(1.14249870987 -4.48233213719e-07 0)
(1.14249822669 -5.86386036963e-07 0)
(1.14249795586 -5.7322518954e-07 0)
(1.14249780714 -4.96863691827e-07 0)
(1.14249772824 -4.01411469379e-07 0)
(1.1424976884 -3.10210635358e-07 0)
(1.14249766914 -2.34924429483e-07 0)
(1.14249765979 -1.76952293215e-07 0)
(1.142497655 -1.31320408383e-07 0)
(1.14249765232 -9.3696328412e-08 0)
(1.14249765039 -6.3747462365e-08 0)
(1.14249764825 -4.25484602831e-08 0)
(1.14249764541 -2.90673052819e-08 0)
(1.14249764168 -2.03960392522e-08 0)
(1.14249763691 -1.41923929591e-08 0)
(1.14249763115 -9.61167351986e-09 0)
(1.14249762469 -6.36757312798e-09 0)
(1.14249761778 -3.88707489656e-09 0)
(1.1424976104 -1.62746718561e-09 0)
(1.14249760239 3.84142582729e-10 0)
(1.14249759374 1.70713288721e-09 0)
(1.14249758452 2.13353065536e-09 0)
(1.14249757466 2.03853300662e-09 0)
(1.14249756397 2.00294209402e-09 0)
(1.14249755235 2.24598760695e-09 0)
(1.14249753982 2.61185737705e-09 0)
(1.14249752636 3.02517117595e-09 0)
(1.14249751193 3.74705516422e-09 0)
(1.14249749651 5.01225941955e-09 0)
(1.14249748009 6.55459275657e-09 0)
(1.14249746269 7.98929526777e-09 0)
(1.14249744439 8.97510632972e-09 0)
(1.14249742528 9.61567375786e-09 0)
(1.1424974055 1.04635886638e-08 0)
(1.14249738506 1.20495624988e-08 0)
(1.14249736388 1.44028453893e-08 0)
(1.14249734174 1.70815080398e-08 0)
(1.14249731847 1.96638748256e-08 0)
(1.14249729394 2.21196431386e-08 0)
(1.14249726808 2.46993779639e-08 0)
(1.14249724081 2.75841882648e-08 0)
(1.14249721201 3.0736313331e-08 0)
(1.14249718159 3.40363489902e-08 0)
(1.14249714955 3.74401349192e-08 0)
(1.14249711591 4.09657699772e-08 0)
(1.14249708069 4.45849590583e-08 0)
(1.14249704388 4.82308526812e-08 0)
(1.1424970055 5.19052247768e-08 0)
(1.14249696546 5.58891843945e-08 0)
(1.14249692362 6.03028981036e-08 0)
(1.14249688003 6.51236228299e-08 0)
(1.14249683472 7.00978732478e-08 0)
(1.14249678767 7.49312457422e-08 0)
(1.14249673898 7.96236969948e-08 0)
(1.14249668884 8.45519456051e-08 0)
(1.14249663737 9.00995469239e-08 0)
(1.14249658455 9.62409536898e-08 0)
(1.14249653025 1.02579147881e-07 0)
(1.14249647447 1.08809296719e-07 0)
(1.14249641733 1.15067148288e-07 0)
(1.14249635895 1.21780012527e-07 0)
(1.14249629926 1.29248608194e-07 0)
(1.14249623822 1.37491323716e-07 0)
(1.14249617612 1.46278860861e-07 0)
(1.1424961132 1.55170589605e-07 0)
(1.1424960495 1.64175827552e-07 0)
(1.14249598527 1.73526826787e-07 0)
(1.14249592087 1.83400796749e-07 0)
(1.14249585665 1.93851146509e-07 0)
(1.14249579285 2.04833198062e-07 0)
(1.14249572959 2.1617147923e-07 0)
(1.14249566702 2.27549227733e-07 0)
(1.1424956055 2.38721846141e-07 0)
(1.14249554641 2.49945550775e-07 0)
(1.142495492 2.60995269658e-07 0)
(1.14249544395 2.70936524542e-07 0)
(1.14249540351 2.78323903665e-07 0)
(1.14249537216 2.81003615397e-07 0)
(1.14249535243 2.75447896307e-07 0)
(1.1424953512 2.56274054123e-07 0)
(1.14249537691 2.20240364106e-07 0)
(1.14249543617 1.62709158477e-07 0)
(1.1424955377 7.731244966e-08 0)
(1.14249569459 -4.50737423991e-08 0)
(1.14249592428 -2.18984878783e-07 0)
(1.14249624792 -4.58010968847e-07 0)
(1.14249669243 -7.75006347042e-07 0)
(1.14249729213 -1.18897639944e-06 0)
(1.1424980907 -1.72433834775e-06 0)
(1.14249914401 -2.41200152181e-06 0)
(1.14250052349 -3.29260047528e-06 0)
(1.14250231868 -4.4223271967e-06 0)
(1.14250464503 -5.87144143937e-06 0)
(1.14250765309 -7.73191363585e-06 0)
(1.14251153407 -1.01208799114e-05 0)
(1.14251653125 -1.318624056e-05 0)
(1.14252295585 -1.71158673441e-05 0)
(1.14253120465 -2.21510533166e-05 0)
(1.14254178187 -2.8601864299e-05 0)
(1.14255532884 -3.68650153091e-05 0)
(1.14257266061 -4.7446830995e-05 0)
(1.1425948105 -6.09920895105e-05 0)
(1.14262309084 -7.83182516088e-05 0)
(1.14265916873 -0.000100463713522 0)
(1.14270516121 -0.000128747343062 0)
(1.14276375668 -0.000164851951049 0)
(1.1428383651 -0.000210923998405 0)
(1.14293330973 -0.000269695490571 0)
(1.14305407087 -0.000344644070321 0)
(1.14320759663 -0.000440205300538 0)
(1.14340269889 -0.000562044848928 0)
(1.14365055221 -0.000717405047382 0)
(1.14396532409 -0.000915555270039 0)
(1.14436498406 -0.00116838487663 0)
(1.14487234164 -0.0014911883938 0)
(1.1455163657 -0.0019037109599 0)
(1.14633387109 -0.00243154800783 0)
(1.14737169479 -0.00310804593032 0)
(1.14868950109 -0.00397692864287 0)
(1.15036339475 -0.00509596820792 0)
(1.15249058973 -0.00654219140299 0)
(1.15519544603 -0.00841942381299 0)
(1.15863723097 -0.0108694336685 0)
(1.16301995296 -0.0140887198398 0)
(1.16860445164 -0.0183543882477 0)