/*--------------------------------*- C++ -*----------------------------------*\
| =========                 |                                                 |
| \\      /  F ield         | OpenFOAM: The Open Source CFD Toolbox           |
|  \\    /   O peration     | Version:  2106                                  |
|   \\  /    A nd           | Website:  www.openfoam.com                      |
|    \\/     M anipulation  |                                                 |
\*---------------------------------------------------------------------------*/
FoamFile
{
    version     2.0;
    format      ascii;
    arch        "LSB;label=32;scalar=64";
    class       volScalarField;
    location    "0.42";
    object      p;
}
// * * * * * * * * * * * * * * * * * * * * * * * * * * * * * * * * * * * * * //

dimensions      [0 2 -2 0 0 0 0];

internalField   nonuniform List<scalar> 
9600
(
2.26920751135
-0.628804853743
-1.53303439679
-1.91864400707
-2.13797639484
-2.27791913809
-2.38182376122
-2.46937376254
-2.54887328251
-2.6242638146
-2.69763810799
-2.77014711953
-2.84242056281
-2.91478899328
-2.98740935156
-3.06033746105
-3.13357339476
-3.20708874674
-3.28084325802
-3.35479407292
-3.42890044189
-3.50312793879
-3.57744596948
-3.65183035594
-3.72626186393
-3.80072540141
-3.87520936801
-3.94970482437
-4.0242049069
-4.09870441187
-4.17319927996
-4.24768615929
-4.32216232675
-4.39662557626
-4.47107385669
-4.54550515898
-4.61991760651
-4.69430926743
-4.76867810684
-4.8430219705
-4.91733855668
-4.99162540532
-5.06587979281
-5.14009911862
-5.21428027235
-5.28841993544
-5.36251459372
-5.43656053186
-5.51055369453
-5.58448970374
-5.6583637717
-5.73217078484
-5.80590539031
-5.879561668
-5.9531333833
-6.02661386973
-6.09999597027
-6.17327206228
-6.24643403344
-6.31947315657
-6.39238016959
-6.46514520921
-6.53775772475
-6.61020655011
-6.68247977048
-6.75456463851
-6.82644768301
-6.89811467292
-6.96955054235
-7.0407392767
-7.11166385617
-7.18230632823
-7.25264782066
-7.32266839256
-7.39234691682
-7.46166111044
-7.53058755341
-7.59910151887
-7.66717687944
-7.73478627533
-7.80190113262
-7.86849141244
-7.93452551715
-7.99997028935
-8.06479101178
-8.12895153535
-8.19241413757
-8.25513924383
-8.31708556378
-8.37821015394
-8.43846826571
-8.49781330907
-8.55619678604
-8.61356834358
-8.6698757154
-8.7250646165
-8.77907897439
-8.83186084989
-8.88335015938
-8.9334847576
-8.98220057439
-9.02943135551
-9.07510888395
-9.11916324512
-9.16152214691
-9.20211152872
-9.24085589064
-9.27767762877
-9.31249652677
-9.34523100876
-9.37579805888
-9.40411265568
-9.43008804787
-9.45363596027
-9.47466666498
-9.49308914554
-9.50881064616
-9.52173697903
-9.5317730982
-9.5388228086
-9.54278900921
-9.54357353022
-9.54107712522
-9.53520053836
-9.52584439509
-9.51290883762
-9.49629091333
-9.47588880341
-9.45160136206
-9.42332664759
-9.39096190696
-9.35440375612
-9.31354901375
-9.26829408912
-9.21853385997
-9.16416207045
-9.10507083717
-9.04115020047
-8.97228733881
-8.89836439683
-8.81925761087
-8.7348363997
-8.6449613709
-8.54948060044
-8.44822423117
-8.34100080182
-8.22759167523
-8.10773978988
-7.98113734349
-7.8474068845
-7.7060721741
-7.5565161466
-7.39790622419
-7.22906935905
-7.04827626395
-6.85292487217
-6.639059813
-6.40085586041
-6.13894202133
-5.91345091802
0.357667845068
-0.824689278464
-1.43336331603
-1.78738592817
-2.03000294573
-2.20056654226
-2.32863775363
-2.43314067264
-2.52421646066
-2.60749532943
-2.68626870361
-2.76248607243
-2.83730704629
-2.91141937895
-2.98522536008
-3.05895169027
-3.13271831371
-3.20658097275
-3.2805582288
-3.35464823541
-3.42883934803
-3.50311520786
-3.57745909502
-3.65185563439
-3.72629122418
-3.80075435605
-3.87523570074
-3.94972771732
-4.02422426808
-4.09872048873
-4.17321257476
-4.24769729355
-4.32217180111
-4.39663379899
-4.47108127137
-4.54551216661
-4.61992451968
-4.69431630327
-4.76868540486
-4.84302967565
-4.91734679291
-4.99163427691
-5.06588951428
-5.14010959554
-5.21429156971
-5.28843219065
-5.36252788214
-5.43657492137
-5.5105692538
-5.58450653509
-5.65838201262
-5.73219049125
-5.80592665672
-5.87958466175
-5.95315823163
-6.02664066385
-6.10002480841
-6.17330306074
-6.24646734254
-6.31950893292
-6.39241856304
-6.46518642076
-6.53780197154
-6.61025400195
-6.68253060049
-6.75461906333
-6.82650595367
-6.89817703226
-6.96961719548
-7.04081045428
-7.11173984629
-7.18238741172
-7.25273424002
-7.32276042071
-7.39244489158
-7.46176535421
-7.53069833537
-7.59921915242
-7.66730175989
-7.73491880029
-7.80204168301
-7.86864035815
-7.93468320549
-8.00013710991
-8.06496740066
-8.12913791712
-8.19261097942
-8.25534703653
-8.31730472594
-8.37844110262
-8.43871151788
-8.49806944222
-8.55646628408
-8.61385157698
-8.67017316744
-8.72537689852
-8.7794066148
-8.83220430412
-8.88370992217
-8.93386136698
-8.982594677
-9.02984358806
-9.07553956934
-9.11961275605
-9.16199120452
-9.20260076969
-9.24136570044
-9.27820865824
-9.31304950982
-9.34580624977
-9.37639565035
-9.40473280629
-9.43073129941
-9.45430288014
-9.4753575292
-9.49380403047
-9.50954981598
-9.52250086002
-9.5325622007
-9.53963758489
-9.5436298752
-9.54444127218
-9.54197261756
-9.53612411596
-9.52679583532
-9.51388674728
-9.4972963259
-9.47692293644
-9.45266526445
-9.42442205807
-9.39209166787
-9.35557145689
-9.31475869846
-9.26955092194
-9.21984474699
-9.16553593104
-9.10651858854
-9.04268469242
-8.97392459065
-8.90012537936
-8.82116925053
-8.73693197113
-8.64728156322
-8.5520768695
-8.45116267647
-8.34436544979
-8.23149019062
-8.11231181305
-7.98656636968
-7.85393936068
-7.71404669416
-7.56641449002
-7.41044790994
-7.24539580945
-7.07031717042
-6.88412302174
-6.6857786942
-6.47408897653
-6.24892152002
-6.03108862277
-0.618174701069
-1.09954360966
-1.49080360158
-1.78241824403
-2.00399167195
-2.1719280809
-2.30402944421
-2.41381825678
-2.50967712337
-2.59682215654
-2.67856480836
-2.75699948161
-2.83344690635
-2.90873639779
-2.98338433279
-3.05770599996
-3.13188866722
-3.20603854755
-3.28021149892
-3.3544328817
-3.42871041432
-3.5030421364
-3.57742123573
-3.65183924634
-3.72628738372
-3.80075739276
-3.87524209259
-3.94973541481
-4.02423216112
-4.09872796422
-4.17321932974
-4.24770331275
-4.3221772074
-4.39663867845
-4.47108570523
-4.54551628891
-4.61992846005
-4.69432015542
-4.76868925595
-4.8430335653
-4.91735081454
-4.99163850352
-5.06589398855
-5.14011436506
-5.2142966619
-5.28843765874
-5.36253385706
-5.43658146218
-5.51057637653
-5.58451423253
-5.65839035599
-5.73219952542
-5.80593636568
-5.87959510065
-5.95316946191
-6.02665272732
-6.10003777658
-6.17331700756
-6.24648234093
-6.31952506818
-6.39243590206
-6.46520504105
-6.53782197973
-6.61027547047
-6.68255358981
-6.75464366911
-6.8265323068
-6.89820526298
-6.96964737027
-7.04084261735
-7.1117741195
-7.18242397691
-7.25277324484
-7.3228019543
-7.39248906058
-7.46181231296
-7.5307482186
-7.5992720838
-7.66735792671
-7.73497840546
-7.80210487786
-7.8687072759
-7.93475398361
-8.00021193562
-8.0650465421
-8.12922161032
-8.19269938355
-8.25544032591
-8.31740309751
-8.37854473458
-8.43882057821
-8.4981841393
-8.55658686234
-8.61397821626
-8.67030605477
-8.72551631988
-8.7795527912
-8.83235736099
-8.88387003199
-8.93402867732
-8.98276929384
-9.0300257866
-9.07572956526
-9.11981060607
-9.16219719327
-9.20281525815
-9.2415886747
-9.27844005767
-9.31328971172
-9.34605570678
-9.37665476246
-9.40500207389
-9.43101103679
-9.4545935691
-9.47565965548
-9.4941178843
-9.50987572492
-9.52283924023
-9.53291355196
-9.54000250354
-9.54400883062
-9.54483501039
-9.54238253168
-9.53655158798
-9.52724210893
-9.51435418275
-9.49778747788
-9.47744057769
-9.45321206336
-9.42500062853
-9.39270532104
-9.35622468111
-9.31545682597
-9.27030008845
-9.22065240885
-9.16641158495
-9.10747438576
-9.04373523763
-8.97508708883
-8.90142113585
-8.8226255979
-8.73858355972
-8.64917092442
-8.55425654308
-8.45369941313
-8.34734428625
-8.23501963653
-8.11653172417
-7.99165882275
-7.86014575319
-7.72169339518
-7.5759520606
-7.42251507625
-7.26092412445
-7.09069970345
-6.91144345024
-6.72311054097
-6.52611728175
-6.321418205
-6.11716618309
-1.16963621205
-1.35598136175
-1.59843036963
-1.82089760463
-2.00808764306
-2.16211593471
-2.29055306541
-2.40084387288
-2.49863871311
-2.58799903052
-2.67177061859
-2.75189751224
-2.82968747038
-2.90600952352
-2.98143426945
-3.05633027002
-3.13093125438
-3.20538167095
-3.27976769451
-3.35413818045
-3.42851854608
-3.50292012131
-3.57734634586
-3.65179510825
-3.72626300262
-3.80074539621
-3.87523754796
-3.94973512914
-4.02423420598
-4.09873117359
-4.17322293079
-4.24770686981
-4.32218060261
-4.39664190603
-4.47108876648
-4.54551920029
-4.61993121392
-4.6943228083
-4.76869187901
-4.84303623503
-4.91735352884
-4.99164129923
-5.06589691643
-5.14011751359
-5.21430006053
-5.28844131901
-5.36253777962
-5.43658565076
-5.51058086284
-5.58451904092
-5.65839549379
-5.73220508086
-5.80594235864
-5.87960154894
-5.95317639994
-6.02666021217
-6.10004583548
-6.1733256486
-6.24649158499
-6.31953496281
-6.39244650232
-6.46521639564
-6.53783414454
-6.61028851695
-6.6825675946
-6.75465871149
-6.82654844818
-6.89822254416
-6.96966582271
-7.0408622733
-7.11179504816
-7.18244629021
-7.2527970481
-7.3228273005
-7.39251597691
-7.46184087027
-7.53077852809
-7.5993042427
-7.66739203403
-7.73501455876
-7.80214312369
-7.86874767179
-7.93479666864
-8.00025708419
-8.0650943178
-8.12927213368
-8.19275271606
-8.25549655921
-8.31746241274
-8.37860732032
-8.43888652762
-8.49825350575
-8.55665981299
-8.61405494121
-8.67038665954
-8.72560096128
-8.77964163921
-8.83245052024
-8.8839676829
-8.9341310516
-8.98287648699
-9.03013801838
-9.07584726757
-9.11993406134
-9.16232666526
-9.20295115116
-9.24173125966
-9.27858928647
-9.3134457769
-9.34621900265
-9.37682540906
-9.40517996052
-9.43119619043
-9.45478616885
-9.47585998926
-9.49432618572
-9.51009230144
-9.52306451756
-9.53314800477
-9.54024677744
-9.54426345589
-9.54510035357
-9.54265940272
-9.53684136832
-9.52754598069
-9.51467308389
-9.49812286845
-9.47779489197
-9.45358840324
-9.42540245961
-9.39313656919
-9.35669029834
-9.31596308009
-9.27085463513
-9.22126428236
-9.16709147539
-9.10823577668
-9.04459522554
-8.97606644809
-8.90254475147
-8.82392391739
-8.74009491247
-8.65094310805
-8.55634827967
-8.45618385785
-8.35031364909
-8.23859069852
-8.12085358733
-7.99692298083
-7.86660075566
-7.72966714264
-7.58588304424
-7.43499539925
-7.2767563776
-7.11096795602
-6.93756017532
-6.75674862602
-6.56909796012
-6.37541398628
-6.17877637497
-1.50698240424
-1.55874354422
-1.70263986398
-1.86693310023
-2.02126509229
-2.15932325082
-2.28147678412
-2.39026537216
-2.48870982637
-2.57954015897
-2.66494819336
-2.7465864363
-2.8256565818
-2.90301048275
-2.9792399909
-3.05474875569
-3.12980746118
-3.20459424494
-3.27922381669
-3.35376822374
-3.42827114465
-3.50275795532
-3.57724247547
-3.6517303927
-3.72622423292
-3.80072352321
-3.8752263658
-3.94973043762
-4.02423331272
-4.09873244744
-4.17322532518
-4.24770969847
-4.32218350945
-4.39664477551
-4.47109157961
-4.54552193697
-4.61993385649
-4.69432536761
-4.76869439676
-4.84303880594
-4.91735621463
-4.99164407858
-5.0658998471
-5.14012066986
-5.21430349364
-5.28844505842
-5.36254185814
-5.43659011826
-5.51058578325
-5.58452439376
-5.65840125098
-5.73221128761
-5.80594906794
-5.87960875785
-5.95318412282
-6.02666849474
-6.10005474948
-6.17333525868
-6.24650193634
-6.31954611857
-6.39245852947
-6.46522934632
-6.53784806858
-6.61030346746
-6.68258363236
-6.75467589245
-6.82656680366
-6.89824211254
-6.96968667598
-7.04088449312
-7.11181871349
-7.18247148472
-7.25282386099
-7.3228558284
-7.39254632031
-7.46187314922
-7.53081288077
-7.59934077683
-7.66743083585
-7.73505575047
-7.80218684537
-7.86879404081
-7.934845776
-8.00030902412
-8.06514922769
-8.12933016124
-8.19281395054
-8.25556104298
-8.31753022421
-8.37867863254
-8.43896150635
-8.49833221571
-8.55674238301
-8.61414161796
-8.67047759518
-8.7256962481
-8.77974141908
-8.83255488972
-8.88407670452
-8.93424481646
-8.98299500479
-9.03026128469
-9.07597549607
-9.1200674037
-9.16246514847
-9.20309490529
-9.24188056083
-9.27874420981
-9.31360634775
-9.34638545334
-9.37699803618
-9.40535905777
-9.43138201565
-9.45497894693
-9.47605996647
-9.49453353016
-9.51030721474
-9.5232874323
-9.53337942261
-9.54048744158
-9.54451431372
-9.54536201457
-9.54293238231
-9.53712684171
-9.52784576678
-9.51498904197
-9.49845688997
-9.47814924264
-9.45396602526
-9.42580715928
-9.39357296076
-9.35716380131
-9.3164801753
-9.27142350014
-9.22189508905
-9.16779615889
-9.10902859923
-9.04549407243
-8.97709375855
-8.90372792035
-8.82529580186
-8.74169586038
-8.65282350382
-8.55857044356
-8.45882475107
-8.35346879891
-8.24237951349
-8.12542688461
-8.00247194891
-7.87336778906
-7.73796214407
-7.5961049584
-7.44765805007
-7.29251428787
-7.13063497468
-6.96209649193
-6.78714938201
-6.60618691994
-6.41952593477
-6.22784722319
-1.71105698362
-1.70607637394
-1.79005216262
-1.91084198095
-2.03748404485
-2.16016410482
-2.27506085603
-2.38125718219
-2.47954068251
-2.57133009879
-2.65809127831
-2.74110670384
-2.82141095138
-2.8997977371
-2.97685520758
-3.05300784638
-3.12855575916
-3.20370722505
-3.27860421305
-3.35334182021
-3.42798237662
-3.50256580431
-3.57711688253
-3.65165073267
-3.72617509471
-3.80069452677
-3.87521041908
-3.94972266054
-4.02423043007
-4.09873239912
-4.17322687092
-4.24771206031
-4.32218618888
-4.3966475177
-4.47109426976
-4.54552452856
-4.61993635881
-4.6943277912
-4.76869677364
-4.84304115745
-4.91735859602
-4.99164652628
-5.06590240324
-5.14012341012
-5.21430646043
-5.2884482357
-5.36254523442
-5.43659369838
-5.51058959387
-5.58452848769
-5.65840563112
-5.73221598901
-5.80595413763
-5.87961421255
-5.95318996659
-6.0266747768
-6.10006153964
-6.17334260594
-6.24650984687
-6.31955460848
-6.39246764507
-6.46523913577
-6.53785856191
-6.61031468344
-6.68259561581
-6.75468872031
-6.82658050953
-6.89825670723
-6.96970221808
-7.04090109028
-7.1118364772
-7.18249048089
-7.25284410356
-7.32287734537
-7.39256918059
-7.46189742524
-7.53083863716
-7.59936806165
-7.66745967856
-7.7350862196
-7.80221904671
-7.86882807118
-7.93488175124
-8.00034708522
-8.0651894895
-8.1293727041
-8.1928588712
-8.25560848455
-8.31758031553
-8.37873145873
-8.43901715346
-8.49839075348
-8.556803948
-8.61420646782
-8.6705458556
-8.72576791063
-8.77981661204
-8.83263380369
-8.88415942871
-8.934331473
-8.98308577808
-9.03035633526
-9.07607512458
-9.12017186294
-9.16257453624
-9.20320929216
-9.24200020938
-9.2788693365
-9.31373698942
-9.34652166273
-9.37714004257
-9.40550716824
-9.43153649398
-9.45513997557
-9.47622780259
-9.49470844532
-9.51048948301
-9.52347751397
-9.53357778661
-9.54069464573
-9.54473138327
-9.54559004914
-9.54317218996
-9.53737934653
-9.52811256065
-9.51527221348
-9.49875885006
-9.47847275055
-9.45431418224
-9.4261837447
-9.39398280857
-9.35761287244
-9.31697533489
-9.27197297481
-9.2225093993
-9.16848817616
-9.10981344236
-9.04638987592
-8.97812300311
-8.90491860213
-8.82668175146
-8.74331773114
-8.65473117949
-8.56082558069
-8.46150337867
-8.35666426618
-8.24620647745
-8.13002748765
-8.00802369753
-7.88009148012
-7.74613127909
-7.60605728064
-7.4598084969
-7.30736248356
-7.14875836649
-6.98411977472
-6.81366188217
-6.63762382634
-6.45605762899
-6.26884666484
-1.83418574456
-1.80872796569
-1.85808693026
-1.94824754458
-2.05317146002
-2.16249401785
-2.27033096486
-2.37355469877
-2.47122889282
-2.5636196387
-2.65149121039
-2.73573540812
-2.81719089189
-2.89656892104
-2.97443681841
-3.05122893994
-3.12726822518
-3.20278929181
-3.27795931297
-3.35289543679
-3.42767823666
-3.50236214685
-3.57698324216
-3.65156508049
-3.72612162254
-3.80066240233
-3.87519221156
-3.94971331887
-4.02422650282
-4.09873159938
-4.17322782057
-4.24771396759
-4.32218856432
-4.39665004554
-4.47109673862
-4.54552688346
-4.61993859545
-4.69432996888
-4.7686989001
-4.8430432126
-4.91736063642
-4.99164860873
-5.06590456462
-5.14012570042
-5.21430891918
-5.28845088184
-5.362548097
-5.43659679199
-5.51059290439
-5.58453207663
-5.658409527
-5.7322202075
-5.80595868872
-5.87961911265
-5.95319521529
-6.02668038441
-6.10006755126
-6.1733490647
-6.2465167746
-6.3195620417
-6.39247563508
-6.4652477355
-6.53786781901
-6.61032461802
-6.68260623321
-6.75470005398
-6.82659260564
-6.89826961251
-6.96971599786
-7.04091581319
-7.11185220111
-7.18250726642
-7.25286200098
-7.32289639596
-7.39258944579
-7.461918967
-7.53086149456
-7.59939226918
-7.66748527414
-7.73511327303
-7.80224769284
-7.86885844316
-7.93491390804
-8.00038106785
-8.0652253799
-8.1294105919
-8.19289884818
-8.25565066622
-8.31762478806
-8.37877826025
-8.43906636843
-8.4984424616
-8.55685816759
-8.61426331161
-8.67060546702
-8.72583029966
-8.779881818
-8.83270200228
-8.88423072402
-8.93440585468
-8.98316330799
-9.030437101
-9.07615934013
-9.12025974762
-9.1626661915
-9.20330476371
-9.24209971566
-9.27897308406
-9.313845048
-9.3466341186
-9.37725719164
-9.40562940414
-9.43166405194
-9.45527289013
-9.47636624444
-9.49485284425
-9.51064030673
-9.52363532129
-9.53374309393
-9.54086785426
-9.54491319665
-9.54578171966
-9.54337498479
-9.53759442468
-9.52834135485
-9.51551656222
-9.4990210489
-9.47875581556
-9.45462170376
-9.4265196796
-9.39435181366
-9.35802096646
-9.31742982142
-9.27248228206
-9.22308384302
-9.16914057536
-9.11055928492
-9.04724753991
-8.97911447039
-8.90607100765
-8.82802842695
-8.74489876473
-8.65659478411
-8.56303029164
-8.46412098158
-8.35978270079
-8.24993245402
-8.13449020499
-8.0133809611
-7.88653630037
-7.7538971458
-7.61542238943
-7.47110019236
-7.3209572523
-7.1650692985
-7.00357120498
-6.83664439895
-6.66446084789
-6.48704592021
-6.30425016411
-1.90822722435
-1.87717709894
-1.90710643463
-1.97687998288
-2.06604741854
-2.16492439683
-2.26680382233
-2.36727618563
-2.46420302081
-2.55694962746
-2.6456868895
-2.73095342413
-2.8133986508
-2.89364647593
-2.97223548385
-3.04960227504
-3.12608639546
-3.20194398635
-3.2773637491
-3.3524820984
-3.42739583006
-3.50217244273
-3.5768583131
-3.65148489978
-3.72607136622
-3.80063203695
-3.87517478282
-3.9497041661
-4.02422249469
-4.09873061575
-4.17322849291
-4.24771551778
-4.32219057585
-4.39665222316
-4.47109888334
-4.54552888173
-4.61994047379
-4.6943317609
-4.76870064631
-4.84304488706
-4.91736226683
-4.99165030037
-5.06590634971
-5.14012756945
-5.21431088695
-5.28845298381
-5.36255039588
-5.43659933802
-5.51059564909
-5.58453499492
-5.65841264191
-5.73222352735
-5.80596221246
-5.87962288034
-5.95319927151
-6.02668476044
-6.10007227006
-6.17335412893
-6.2465221902
-6.31956785616
-6.39248190514
-6.46525449566
-6.53787510019
-6.61033243696
-6.6826145759
-6.75470892299
-6.82660204116
-6.89827967245
-6.96972675962
-7.04092733254
-7.1118644757
-7.18252031015
-7.25287588176
-7.32291117744
-7.3926051664
-7.46193564765
-7.53087913708
-7.59941090981
-7.66750498984
-7.73513411569
-7.80226972116
-7.86888176712
-7.93493860463
-8.00040716083
-8.06525294209
-8.12943972852
-8.19292961705
-8.25568312
-8.31765898484
-8.37881422354
-8.43910419575
-8.49848231059
-8.55690005388
-8.61430722209
-8.6706515434
-8.72587865785
-8.77993246961
-8.83275501549
-8.88428623426
-8.93446390777
-8.98322396826
-9.03050042816
-9.07622541953
-9.12032876262
-9.16273828044
-9.20337992881
-9.24217806455
-9.27905480488
-9.31393024681
-9.34672287099
-9.37734972151
-9.40572606714
-9.43176508571
-9.4553783036
-9.4764761377
-9.49496770085
-9.51076068963
-9.5237617042
-9.53387607778
-9.5410079448
-9.54506098816
-9.5459381789
-9.54354141754
-9.5377722423
-9.52853220352
-9.51572234671
-9.49924383571
-9.47899836935
-9.45488775282
-9.4268134961
-9.39467801411
-9.35838530911
-9.3178397068
-9.27294644965
-9.22361248795
-9.16974598782
-9.11125660102
-9.04805515801
-8.98005407074
-8.90716847699
-8.8293153798
-8.74641369652
-8.65838400634
-8.56514896053
-8.46663535335
-8.36277346432
-8.253497293
-8.13874564213
-8.01846585319
-7.8926169456
-7.76117144484
-7.62412088414
-7.48148635739
-7.3333263171
-7.17974011336
-7.02087423814
-6.85690891332
-6.68802370504
-6.51433935054
-6.33592156979
-1.95045948626
-1.91889641883
-1.93853952075
-1.99598665921
-2.07499927913
-2.16677799991
-2.2643959314
-2.36278359747
-2.45906526935
-2.55199944024
-2.64133209138
-2.72733612877
-2.81051208145
-2.89141132017
-2.97054565071
-3.04835000311
-3.12517448145
-3.20129049889
-3.27690260814
-3.35216163994
-3.42717662855
-3.50202499043
-3.57676083984
-3.65142110213
-3.72603196039
-3.8006083239
-3.87516113649
-3.94969691887
-4.02421924935
-4.09872979292
-4.17322900817
-4.24771670001
-4.3221920729
-4.39665383183
-4.47110050337
-4.54553043899
-4.61994193153
-4.69433313505
-4.76870196663
-4.84304614745
-4.91736347984
-4.99165156477
-5.06590769551
-5.14012898235
-5.21431236875
-5.28845455987
-5.3625520876
-5.4366011869
-5.51059766339
-5.58453716627
-5.65841500412
-5.73222608852
-5.80596492503
-5.87962574261
-5.95320234098
-6.02668807484
-6.10007583905
-6.17335795361
-6.24652628006
-6.31957226671
-6.39248668719
-6.46525963976
-6.53788058567
-6.61033828132
-6.68262080644
-6.75471555875
-6.82660910837
-6.89828719417
-6.96973477827
-7.04093590488
-7.11187361341
-7.18253001257
-7.25288621418
-7.32292222258
-7.39261694586
-7.46194814485
-7.53089233358
-7.59942483267
-7.66751973029
-7.7351497227
-7.8022861694
-7.86889908425
-7.93495688346
-8.00042645904
-8.06527331897
-8.12946127725
-8.19295236179
-8.25570704139
-8.31768413609
-8.37884067221
-8.43913200038
-8.49851159188
-8.5569308471
-8.61433944011
-8.67068524005
-8.72591400995
-8.77996950467
-8.83279366699
-8.88432655197
-8.93450600936
-8.9832680036
-9.03054649424
-9.07627350406
-9.1203789302
-9.16279071027
-9.20343464572
-9.24223504185
-9.27911418826
-9.31399224877
-9.34678764468
-9.37741737045
-9.40579676377
-9.43183908617
-9.45545579952
-9.47655727866
-9.49505289658
-9.51085046391
-9.52385643138
-9.53397626174
-9.54111428976
-9.54517427058
-9.54605931697
-9.54367148178
-9.53791250237
-9.52868436026
-9.51588861871
-9.49942647748
-9.47919984488
-9.45511148758
-9.4270639469
-9.39496004106
-9.35870446501
-9.31820310381
-9.2733628723
-9.22409223559
-9.1703010385
-9.11190133793
-9.04880741116
-8.98093532395
-8.90820390549
-8.8305347992
-8.74785320691
-8.66008755183
-8.56716886454
-8.4690332622
-8.36562313151
-8.25688743168
-8.14278183118
-8.02327212685
-7.89833871496
-7.76797961718
-7.63221317001
-7.49108631983
-7.34468368186
-7.19312850157
-7.03658954421
-6.87527750901
-6.70942723592
-6.53929150493
-6.36517280249
-1.96970721606
-1.93861288573
-1.95383440829
-2.00550341061
-2.07956040848
-2.16776166727
-2.26316603575
-2.36043483377
-2.45634686783
-2.54935784953
-2.6389933044
-2.72538398686
-2.80894852346
-2.89019717599
-2.96962574086
-3.04766717773
-3.12467661028
-3.20093334792
-3.27665036121
-3.35198622311
-3.4270565939
-3.50194425858
-3.57670760694
-3.65138706572
-3.7260104463
-3.80059532468
-3.875153711
-3.94969300021
-4.02421749254
-4.0987293763
-4.17322936623
-4.24771744067
-4.32219295226
-4.39665475382
-4.47110142455
-4.54553137067
-4.61994285765
-4.69433400766
-4.76870279013
-4.84304696683
-4.91736429661
-4.99165240869
-5.06590859478
-5.14012994572
-5.21431342552
-5.2884557345
-5.36255333467
-5.43660249534
-5.5105990582
-5.58453863788
-5.65841656939
-5.73222777387
-5.80596670844
-5.87962762463
-5.95320435066
-6.02669023461
-6.10007815196
-6.17336043711
-6.24652897054
-6.31957522868
-6.39248997357
-6.465263204
-6.53788434118
-6.61034221794
-6.68262497067
-6.7547199898
-6.8266138332
-6.89829220664
-6.96974006812
-7.04094151104
-7.11187957171
-7.18253631934
-7.25289290051
-7.32292935215
-7.39262454216
-7.46195620848
-7.53090086924
-7.59943385184
-7.66752929148
-7.73515987877
-7.80229686517
-7.86891027696
-7.93496866797
-8.00043891339
-8.06528643026
-8.12947507191
-8.19296688685
-8.25572229046
-8.31770014064
-8.37885747714
-8.43914959021
-8.49853002998
-8.55695025564
-8.61435978672
-8.67070645855
-8.72593622014
-8.77999281158
-8.8328179873
-8.88435185747
-8.93453237552
-8.98329554074
-9.03057532062
-9.07630359075
-9.12041023535
-9.16282337481
-9.20346883185
-9.24227067067
-9.27915129866
-9.31403107157
-9.34682837946
-9.37746005871
-9.40584138751
-9.43188584999
-9.45550513859
-9.47660952022
-9.4951082894
-9.51090936136
-9.52391926906
-9.53404355772
-9.54118669386
-9.54525252794
-9.54614443095
-9.54376461097
-9.53801483481
-9.52879734977
-9.51601448255
-9.49956781843
-9.47935922792
-9.45529201188
-9.4272698744
-9.39519647848
-9.35897710175
-9.31851878289
-9.27373003775
-9.22452116253
-9.17080381703
-9.1124919908
-9.04950291625
-8.98175650379
-8.90917560359
-8.83168609047
-8.74921835968
-8.66170793537
-8.56909428966
-8.47132236519
-8.36834486693
-8.26012362609
-8.14662967594
-8.02784565673
-7.9037699842
-7.77442215787
-7.63984501429
-7.50010952292
-7.35532678023
-7.20564898627
-7.0512775069
-6.89247003621
-6.72953576616
-6.56285179689
-6.39290415492
-1.9697065926
-1.93861307416
-1.95383433944
-2.00550327277
-2.07956057305
-2.16776167987
-2.26316607307
-2.3604349715
-2.45634698897
-2.54935790357
-2.63899332785
-2.72538400651
-2.80894856398
-2.89019721735
-2.96962577346
-3.04766721206
-3.12467665047
-3.20093339464
-3.2766504168
-3.35198626428
-3.42705663207
-3.5019443328
-3.57670770118
-3.65138714034
-3.72601050351
-3.80059541208
-3.87515385812
-3.94969317002
-4.02421763454
-4.09872951113
-4.17322954781
-4.24771765588
-4.32219318037
-4.39665497278
-4.47110165848
-4.54553164892
-4.61994317001
-4.69433431621
-4.76870308536
-4.84304730384
-4.91736466438
-4.9916527782
-5.06590897077
-5.1401303481
-5.21431389603
-5.28845631146
-5.36255396173
-5.43660312068
-5.51059973882
-5.58453940983
-5.65841739703
-5.73222863394
-5.80596761217
-5.8796286016
-5.95320543959
-6.02669141372
-6.10007937352
-6.17336170989
-6.24653033939
-6.31957672631
-6.39249162027
-6.46526497347
-6.53788618558
-6.61034413341
-6.68262698
-6.75472210411
-6.82661606276
-6.8982945771
-6.96974256662
-7.04094413105
-7.11188235015
-7.1825392882
-7.25289607448
-7.32293275676
-7.3926281783
-7.46196005754
-7.5309049307
-7.59943808704
-7.66753365565
-7.73516439707
-7.80230155954
-7.86891514514
-7.93497379222
-8.00044437889
-8.06529217103
-8.12948100512
-8.19297307014
-8.25572880204
-8.31770701191
-8.37886471168
-8.439157115
-8.49853779048
-8.55695836004
-8.61436829384
-8.67071523747
-8.72594521071
-8.78000214714
-8.83282775985
-8.88436208765
-8.93454309768
-8.98330670729
-9.03058695486
-9.07631569206
-9.1204227241
-9.1628362696
-9.20348235258
-9.24228487724
-9.27916615076
-9.31404668745
-9.34684498503
-9.37747773874
-9.40586004925
-9.43190555255
-9.45552635823
-9.47663283561
-9.49513391345
-9.51093738413
-9.52394995496
-9.53407758468
-9.5412249217
-9.54529556651
-9.54619304133
-9.54382009174
-9.5380787107
-9.52887099621
-9.51609970968
-9.49966725078
-9.47947577877
-9.45542878601
-9.42743084334
-9.39538670682
-9.35920249846
-9.31878624709
-9.27404772608
-9.22489903315
-9.17125408682
-9.11302898489
-9.05014329131
-8.9825202063
-8.91008683945
-8.83277378702
-8.75051634793
-8.66325615476
-8.57094070627
-8.4735237702
-8.37096777635
-8.26324609696
-8.15034390771
-8.03226030223
-7.90901063615
-7.78063369468
-7.64719608163
-7.50879336839
-7.36556445338
-7.21769472628
-7.06542427994
-6.90906103028
-6.74898560981
-6.58567197267
-6.41972404348
-1.95045763746
-1.91889709059
-1.93853947405
-1.99598625915
-2.07499976857
-2.16677811236
-2.26439603485
-2.36278394184
-2.4590655709
-2.55199958395
-2.64133219964
-2.72733623032
-2.81051219759
-2.89141143036
-2.97054575441
-3.04835012156
-3.12517459978
-3.20129062558
-3.27690277292
-3.3521617937
-3.42717677966
-3.50202520696
-3.57676107388
-3.6514212921
-3.72603215304
-3.80060861543
-3.87516157399
-3.94969741406
-4.02421968555
-4.09873022966
-4.17322955913
-4.24771731553
-4.32219270624
-4.39665448614
-4.47110121913
-4.54553129108
-4.61994289077
-4.69433409269
-4.76870289619
-4.84304718712
-4.91736460422
-4.99165273502
-5.06590894062
-5.14013033136
-5.21431389502
-5.28845635237
-5.36255401178
-5.43660311697
-5.51059972738
-5.58453944543
-5.65841745202
-5.7322286525
-5.80596759119
-5.87962857594
-5.95320546324
-6.02669148138
-6.10007944226
-6.17336179502
-6.24653046607
-6.31957685677
-6.39249170808
-6.46526500547
-6.53788616516
-6.61034408088
-6.68262690598
-6.75472197804
-6.82661587572
-6.89829436276
-6.96974232314
-7.04094380765
-7.11188194022
-7.18253883475
-7.25289562397
-7.32293234026
-7.39262776744
-7.46195959143
-7.53090440127
-7.59943746486
-7.66753283789
-7.73516336408
-7.8023003866
-7.86891386189
-7.93497241769
-8.00044294645
-8.06529062106
-8.12947925155
-8.19297110093
-8.25572663957
-8.31770464011
-8.37886215034
-8.43915435805
-8.49853476669
-8.5569550933
-8.61436489396
-8.67071162335
-8.72594120769
-8.77999775895
-8.83282306541
-8.88435713391
-8.93453796091
-8.98330131002
-9.03058121971
-9.07630966485
-9.12041634891
-9.16282946584
-9.20347525654
-9.24227763351
-9.27915873686
-9.31403906528
-9.34683726723
-9.37747010404
-9.40585261917
-9.431898342
-9.45551955586
-9.4766269062
-9.49512928442
-9.5109343024
-9.52394854751
-9.53407828702
-9.54122865256
-9.5453031513
-9.54620511353
-9.54383772854
-9.53810360886
-9.52890480965
-9.51614407911
-9.49972453946
-9.47954906613
-9.4555214089
-9.42754671344
-9.39553067469
-9.35938043452
-9.31900526435
-9.2743161521
-9.22522661585
-9.17165280373
-9.11351342923
-9.05073057562
-8.98323023348
-8.91094332934
-8.83380551311
-8.75175744036
-8.66474648948
-8.57272771086
-8.47566373504
-8.37352677889
-8.26630128731
-8.15398567435
-8.03659522077
-7.91416296466
-7.78674638873
-7.654435252
-7.51735102192
-7.37566018008
-7.22958178552
-7.07939524763
-6.92545356452
-6.76819415489
-6.60815527054
-6.44600171637
-1.90822429565
-1.87717824116
-1.90710657946
-1.97687926352
-2.06604806632
-2.16492467934
-2.26680403125
-2.36727666822
-2.46420342075
-2.55694986393
-2.64568713116
-2.73095361704
-2.81339881943
-2.8936466474
-2.97223567409
-3.04960249371
-3.12608660573
-3.201944198
-3.2773640297
-3.35248239912
-3.4273961186
-3.5021727632
-3.57685863196
-3.65148521589
-3.72607177946
-3.8006325871
-3.87517546117
-3.94970491768
-4.02422323253
-4.0987313943
-4.17322939986
-4.24771649996
-4.32219161988
-4.39665334768
-4.47110013143