/*--------------------------------*- C++ -*----------------------------------*\
| =========                 |                                                 |
| \\      /  F ield         | OpenFOAM: The Open Source CFD Toolbox           |
|  \\    /   O peration     | Version:  2106                                  |
|   \\  /    A nd           | Website:  www.openfoam.com                      |
|    \\/     M anipulation  |                                                 |
\*---------------------------------------------------------------------------*/
FoamFile
{
    version     2.0;
    format      ascii;
    arch        "LSB;label=32;scalar=64";
    class       surfaceScalarField;
    location    "0.1";
    object      phi;
}
// * * * * * * * * * * * * * * * * * * * * * * * * * * * * * * * * * * * * * //

dimensions      [0 3 -1 0 0 0 0];

oriented        oriented;

internalField   nonuniform List<scalar> 
18840
(
3.37543041707e-05
1.62456958247e-05
2.25359617517e-05
1.12183424626e-05
1.63023762947e-05
6.23358540895e-06
1.28098219612e-05
3.49255423846e-06
1.08065752823e-05
2.00324675883e-06
9.60476295198e-06
1.20181246948e-06
8.85167150051e-06
7.53091530688e-07
8.36502420739e-06
4.86647340338e-07
8.04518293022e-06
3.19841277694e-07
7.83374643129e-06
2.11436405352e-07
7.69430048237e-06
1.39445812921e-07
7.60312131332e-06
9.11790431314e-08
7.54433955494e-06
5.87816811824e-08
7.50719693306e-06
3.71426161371e-08
7.48436858126e-06
2.2828419922e-08
7.47087736657e-06
1.34913366801e-08
7.46336382612e-06
7.51367529262e-09
7.45958391102e-06
3.78006355324e-09
7.45805922105e-06
1.52481360734e-09
7.45783014703e-06
2.2916129411e-10
7.45829737776e-06
-4.67181524972e-10
7.45908186103e-06
-7.84442826602e-10
7.45996597368e-06
-8.84028646023e-10
7.4608270359e-06
-8.60921031404e-10
7.46160290385e-06
-7.757079512e-10
7.46226821324e-06
-6.65193599079e-10
7.46281884079e-06
-5.50613709291e-10
7.46326207765e-06
-4.43331985175e-10
7.46361062587e-06
-3.48690529514e-10
7.46387900296e-06
-2.68502975836e-10
7.46408150943e-06
-2.02599044324e-10
7.46423123301e-06
-1.49785347499e-10
7.46433959655e-06
-1.08412055225e-10
7.46441622348e-06
-7.66690372985e-11
7.46446904164e-06
-5.28062498809e-11
7.46450440059e-06
-3.52705144945e-11
7.46452722389e-06
-2.26951323962e-11
7.46454128405e-06
-1.3905368908e-11
7.46454940767e-06
-7.95467406252e-12
7.46455365534e-06
-4.10568602136e-12
7.4645556296e-06
-1.86619101499e-12
7.46455595602e-06
-2.55246760504e-13
7.46455541849e-06
5.33912281094e-13
7.46455454921e-06
8.02789229035e-13
7.46455364736e-06
7.92507327279e-13
7.46455282191e-06
6.53985334274e-13
7.46455213881e-06
4.90223871773e-13
7.46455165792e-06
3.18022938626e-13
7.46455135919e-06
1.39961414286e-13
7.46455121868e-06
-1.34743705901e-14
7.46455125383e-06
-1.51893097963e-13
7.46455143041e-06
-2.77902399913e-13
7.46455169865e-06
-3.47051959653e-13
7.4645520549e-06
-3.69949005039e-13
7.46455244131e-06
-3.84442211632e-13
7.46455281878e-06
-3.92920118053e-13
7.46455323198e-06
-4.22309878635e-13
7.46455367292e-06
-4.85160586786e-13
7.46455411629e-06
-5.30730962397e-13
7.46455461506e-06
-5.41151599123e-13
7.46455517189e-06
-5.37134552555e-13
7.46455574575e-06
-5.15246823373e-13
7.46455635627e-06
-5.17111974413e-13
7.46455697358e-06
-5.94107377544e-13
7.46455755296e-06
-6.85441092592e-13
7.46455819114e-06
-7.49565894109e-13
7.46455894177e-06
-8.26583427137e-13
7.46455973698e-06
-8.8446281522e-13
7.46456061057e-06
-8.91501312706e-13
7.46456159784e-06
-9.17695121289e-13
7.46456260506e-06
-9.78539517092e-13
7.46456362686e-06
-1.03149987245e-12
7.46456472268e-06
-1.09859011744e-12
7.46456586179e-06
-1.15807456161e-12
7.46456707374e-06
-1.15629627836e-12
7.46456840246e-06
-1.14344022369e-12
7.46456975074e-06
-1.17097542757e-12
7.46457108632e-06
-1.23053392357e-12
7.46457247381e-06
-1.31770061574e-12
7.46457388975e-06
-1.36944496128e-12
7.4645753499e-06
-1.34140079788e-12
7.46457689225e-06
-1.33808633452e-12
7.46457840214e-06
-1.40260944697e-12
7.46457986834e-06
-1.45128821504e-12
7.46458142534e-06
-1.50858127906e-12
7.46458301991e-06
-1.61003041169e-12
7.46458460394e-06
-1.67109436453e-12
7.46458630732e-06
-1.68840067459e-12
7.46458811702e-06
-1.71584698099e-12
7.4645899778e-06
-1.74966967748e-12
7.4645919744e-06
-1.83694671213e-12
7.46459405903e-06
-1.9578740934e-12
7.46459615908e-06
-1.97989359592e-12
7.4645983602e-06
-1.97671661275e-12
7.46460059213e-06
-2.10384483876e-12
7.46460279712e-06
-2.28639324812e-12
7.46460523486e-06
-2.48897202727e-12
7.4646079402e-06
-2.74721726444e-12
7.46461071546e-06
-2.90386124179e-12
7.46461374388e-06
-2.98272639585e-12
7.46461712258e-06
-3.24351234331e-12
7.46462066629e-06
-3.64960831278e-12
7.46462458512e-06
-4.05662835685e-12
7.46462911063e-06
-4.58244943417e-12
7.46463412704e-06
-5.20192926428e-12
7.46463986522e-06
-5.83656876348e-12
7.46464671134e-06
-6.69040148201e-12
7.46465471825e-06
-7.88302387005e-12
7.46466410394e-06
-9.39769534435e-12
7.46467524071e-06
-1.12819067624e-11
7.46468846432e-06
-1.34872180376e-11
7.46470448702e-06
-1.60728863939e-11
7.4647241279e-06
-1.94235540845e-11
7.46474797099e-06
-2.37986882675e-11
7.46477696717e-06
-2.91906060183e-11
7.46481259426e-06
-3.57760633897e-11
7.46485635473e-06
-4.39241446763e-11
7.46491002928e-06
-5.39194561606e-11
7.46497615932e-06
-6.61964933495e-11
7.46505784938e-06
-8.14721317372e-11
7.46515869249e-06
-1.0051828835e-10
7.46528323769e-06
-1.242744893e-10
7.46543767608e-06
-1.54393121104e-10
7.46563176532e-06
-1.94437451705e-10
7.46586990338e-06
-2.38550723547e-10
7.46616305555e-06
-2.93089230029e-10
7.46652571905e-06
-3.6231896646e-10
7.46697437822e-06
-4.48765963646e-10
7.46753004877e-06
-5.558358027e-10
7.46821875146e-06
-6.88588637817e-10
7.46907175552e-06
-8.53123719513e-10
7.47012840687e-06
-1.05673322825e-09
7.47143788461e-06
-1.30916629838e-09
7.47306042837e-06
-1.62243794487e-09
7.47507112098e-06
-2.01086347203e-09
7.47756371346e-06
-2.49269831366e-09
7.48065407608e-06
-3.09066679803e-09
7.48448671427e-06
-3.83288740754e-09
7.4892420295e-06
-4.75524583863e-09
7.49514414828e-06
-5.90233271079e-09
7.50247386314e-06
-7.32986871298e-09
7.51158312308e-06
-9.10906653208e-09
7.52291275527e-06
-1.13297458246e-08
7.53701925997e-06
-1.41063228826e-08
7.55460709636e-06
-1.75869964375e-08
7.57657119157e-06
-2.19635429519e-08
7.60405747368e-06
-2.74862540521e-08
7.63854479701e-06
-3.44874154209e-08
7.68195957289e-06
-4.34149661462e-08
7.73684226065e-06
-5.48832328668e-08
7.80660101705e-06
-6.97589606309e-08
7.89592196159e-06
-8.93206079026e-08
8.01151619712e-06
-1.15594680643e-07
8.16373148689e-06
-1.52215568555e-07
8.37064534798e-06
-2.06913802022e-07
8.66965897073e-06
-2.99014410643e-07
9.15207419999e-06
-4.82414785059e-07
1.00736986294e-05
-9.21624345696e-07
1.2228611344e-05
-2.15491280564e-06
-5.88905316437e-06
1.81176670916e-05
5.01388812988e-05
1.61068143758e-05
4.41591275283e-05
1.71980961955e-05
3.77598699843e-05
1.26328430936e-05
3.26495082665e-05
8.60291598055e-06
2.89465736035e-05
5.70618149314e-06
2.6367593601e-05
3.78079263043e-06
2.4593877448e-05
2.5268077723e-06
2.33783974802e-05
1.70212724488e-06
2.25473384575e-05
1.15090015156e-06
2.19811995031e-05
7.77575138775e-07
2.15978924229e-05
5.22752675888e-07
2.13406970359e-05
3.48374313667e-07
2.1170194285e-05
2.29284442307e-07
2.1058912662e-05
1.48424364344e-07
2.09877221424e-05
9.40191279495e-08
2.09433551583e-05
5.78585388231e-08
2.09166727705e-05
3.41962566389e-08
2.09014382307e-05
1.90147580944e-08
2.0893444474e-05
9.51867810171e-09
2.08898959396e-05
3.77777469338e-09
2.0888955788e-05
4.73071334396e-10
2.088945698e-05
-1.28549449151e-09
2.08906676597e-05
-2.09452452344e-09
2.08921464304e-05
-2.33949973327e-09
2.08936401797e-05
-2.26934733127e-09
2.08950149156e-05
-2.03995534726e-09
2.0896210032e-05
-1.74587592705e-09
2.08972083313e-05
-1.44184776604e-09
2.08980168794e-05
-1.15745587583e-09
2.08986550281e-05
-9.06818082269e-10
2.08991471152e-05
-6.94813656677e-10
2.08995182821e-05
-5.21040357648e-10
2.08997921764e-05
-3.8231401154e-10
2.08999897376e-05
-2.74166184517e-10
2.09001287924e-05
-1.91740161414e-10
2.09002240585e-05
-1.3034549715e-10
2.09002872938e-05
-8.57047879222e-11
2.090032768e-05
-5.40529847676e-11
2.09003522266e-05
-3.22329512873e-11
2.09003660372e-05
-1.76813472627e-11
2.09003726385e-05
-8.34238661787e-12
2.09003749493e-05
-2.56967600434e-12
2.09003746684e-05
6.53204468225e-13
2.09003734465e-05
1.73653052175e-12
2.09003718035e-05
2.14721575416e-12
2.09003701289e-05
2.05959975634e-12
2.09003685968e-05
1.72790654769e-12
2.09003673144e-05
1.3151532255e-12
2.09003662694e-05
9.11499102729e-13
2.09003655525e-05
4.35082918721e-13
2.09003651679e-05
6.5443418217e-14
2.09003650626e-05
-2.20661816136e-13
2.0900365109e-05
-4.23642911988e-13
2.09003652626e-05
-5.48351999355e-13
2.09003654727e-05
-6.43462792979e-13
2.09003656688e-05
-7.11694183013e-13
2.09003659043e-05
-7.48242347439e-13
2.09003662219e-05
-7.97697409269e-13
2.09003665628e-05
-8.54981859739e-13
2.09003669403e-05
-8.90590472327e-13
2.0900367374e-05
-9.24776982388e-13
2.09003677944e-05
-9.55720440827e-13
2.0900368218e-05
-9.9220357528e-13
2.09003686787e-05
-1.09839339217e-12
2.09003691115e-05
-1.25232733945e-12
2.09003695711e-05
-1.36180178077e-12
2.09003701631e-05
-1.45753468859e-12
2.09003707952e-05
-1.56986989695e-12
2.09003714359e-05
-1.63342552187e-12
2.09003722004e-05
-1.66339295393e-12
2.09003730347e-05
-1.71412611607e-12
2.09003738566e-05
-1.77022246949e-12
2.0900374731e-05
-1.84644341762e-12
2.09003756524e-05
-1.94528239638e-12
2.09003766078e-05
-1.99607574589e-12
2.09003776603e-05
-2.01400218816e-12
2.09003787387e-05
-2.06314891776e-12
2.09003798028e-05
-2.11626743469e-12
2.09003809822e-05
-2.17511896911e-12
2.09003822271e-05
-2.27196623695e-12
2.09003834082e-05
-2.35981420925e-12
2.09003846202e-05
-2.4488252617e-12
2.09003858834e-05
-2.58778317658e-12
2.09003871148e-05
-2.70689974566e-12
2.09003884113e-05
-2.795310017e-12
2.09003897888e-05
-2.92637557525e-12
2.09003911734e-05
-3.02546985424e-12
2.0900392701e-05
-3.04745311477e-12
2.09003943986e-05
-3.1200742898e-12
2.09003961419e-05
-3.27995016025e-12
2.09003980533e-05
-3.4972112314e-12
2.09004001969e-05
-3.78387139676e-12
2.09004024025e-05
-4.05215877112e-12
2.09004047153e-05
-4.2945194385e-12
2.09004072295e-05
-4.67293740467e-12
2.0900409908e-05
-5.14460189477e-12
2.09004130167e-05
-5.60591602736e-12
2.09004167371e-05
-6.20921979871e-12
2.09004207813e-05
-6.95552061641e-12
2.09004252475e-05
-7.6882146449e-12
2.09004305624e-05
-8.60960842774e-12
2.09004366711e-05
-9.86471468376e-12
2.09004437615e-05
-1.13044647346e-11
2.09004523582e-05
-1.3071306531e-11
2.09004624953e-05
-1.53803267408e-11
2.0900474407e-05
-1.81319349993e-11
2.09004888746e-05
-2.13686081709e-11
2.09005063746e-05
-2.53238371038e-11
2.09005272887e-05
-3.00987604737e-11
2.09005521569e-05
-3.58406870951e-11
2.09005835411e-05
-4.49593282658e-11
2.09006220965e-05
-5.51678684787e-11
2.09006697599e-05
-6.74677642633e-11
2.09007286711e-05
-8.28199860414e-11
2.09008012736e-05
-1.01875544534e-10
2.09008909982e-05
-1.25395453063e-10
2.09010019817e-05
-1.5461642016e-10
2.09011390131e-05
-1.90930264676e-10
2.09013083052e-05
-2.35819165451e-10
2.09015177547e-05
-2.91236188094e-10
2.09017768773e-05
-3.59755642805e-10
2.09020971927e-05
-4.44592746451e-10
2.09024927894e-05
-5.49843857269e-10
2.09029794558e-05
-6.8074419774e-10
2.09035846134e-05
-8.43629888643e-10
2.09043370184e-05
-1.04576217992e-09
2.09052709727e-05
-1.29637751121e-09
2.09064290016e-05
-1.60703345467e-09
2.09078641364e-05
-1.99157474605e-09
2.09096432225e-05
-2.46776308293e-09
2.09118482452e-05
-3.05793530428e-09
2.0914580455e-05
-3.78918281695e-09
2.09179665509e-05
-4.69540060863e-09
2.09221634335e-05
-5.81909663738e-09
2.09273652445e-05
-7.21264014821e-09
2.09338138832e-05
-8.94127093305e-09
2.09418097739e-05
-1.1086410107e-08
2.09517263044e-05
-1.37495084237e-08
2.09640294186e-05
-1.70581403683e-08
2.09792995025e-05
-2.11722202898e-08
2.09982618663e-05
-2.62922879782e-08
2.10218258255e-05
-3.26724600851e-08
2.10511314544e-05
-4.06352085905e-08
2.10876152878e-05
-5.05911605055e-08
2.11330961967e-05
-6.30687700595e-08
2.11898865643e-05
-7.87540512814e-08
2.12609465789e-05
-9.85459728483e-08
2.13500987841e-05
-1.23639281833e-07
2.14623348753e-05
-1.55650440518e-07
2.1604268676e-05
-1.96816235309e-07
2.17848402494e-05
-2.5033050896e-07
2.20164796114e-05
-3.2095956486e-07
2.23171498568e-05
-4.16264382438e-07
2.27142007354e-05
-5.49266222491e-07
2.32520235491e-05
-7.44735640913e-07
2.40076556378e-05
-1.05464634731e-06
2.51208157529e-05
-1.59557452089e-06
2.68371560208e-05
-2.63796403495e-06
2.9502241567e-05
-4.81999888897e-06
-9.4772628827e-06
3.30904523245e-05
5.35844261571e-05
1.25223881473e-05
5.29165988183e-05
1.78659233698e-05
4.96392974949e-05
1.59101445135e-05
4.58382109277e-05
1.24040026401e-05
4.24428670732e-05
9.10152538845e-06
3.9733152707e-05
6.4905070819e-06
3.76912442787e-05
4.56871624948e-06
3.62011792726e-05
3.19219216515e-06
3.51356312966e-05
2.21644798323e-06
3.43849249591e-05
1.52828131479e-06
3.38628053636e-05
1.04487211997e-06
3.35042484584e-05
7.06931143711e-07
3.32613354468e-05
4.72197482498e-07
3.30992652058e-05
3.10494719309e-07
3.29930515899e-05
2.00232916978e-07
3.29249432234e-05
1.25967108388e-07
3.28824619475e-05
7.66777266682e-08
3.28569345572e-05
4.45422918656e-08
3.28424059518e-05
2.40473757352e-08
3.28348421659e-05
1.13416203573e-08
3.28315519244e-05
3.76340122157e-09
3.28307694324e-05
-5.02860229192e-10
3.28313667593e-05
-2.69167779835e-09
3.28326351357e-05
-3.60771399801e-09
3.28341480264e-05
-3.78215649955e-09
3.28356608522e-05
-3.55281324705e-09
3.28370447749e-05
-3.12990414637e-09
3.28382422956e-05
-2.63949876921e-09
3.28392382283e-05
-2.15351609611e-09
3.28400410863e-05
-1.70978262483e-09
3.28406713421e-05
-1.32517464463e-09
3.28411543072e-05
-1.00411268946e-09
3.28415159756e-05
-7.44027907421e-10
3.28417806153e-05
-5.38772201118e-10
3.28419696097e-05
-3.80652616929e-10
3.28421010911e-05
-2.61680500872e-10
3.2842189878e-05
-1.74288576288e-10
3.2842247724e-05
-1.11681286683e-10
3.28422837634e-05
-6.80490182643e-11
3.28423048851e-05
-3.86218993985e-11
3.28423161716e-05
-1.95602207388e-11
3.28423213875e-05
-7.81627105814e-12
3.2842322743e-05
-8.25055994618e-13
3.28423219901e-05
2.2635026953e-12
3.28423203442e-05
3.54422031671e-12
3.28423184473e-05
3.7282806617e-12
3.28423166224e-05
3.2962201366e-12
3.28423150815e-05
2.59816759356e-12
3.28423139476e-05
1.827761542e-12
3.28423130511e-05
1.13024248601e-12
3.28423123759e-05
5.98648519469e-13
3.28423119923e-05
1.37149835285e-13
3.2842311799e-05
-2.31046012806e-13
3.284231173e-05
-4.90548689249e-13
3.28423117771e-05
-7.03097038325e-13
3.28423118566e-05
-8.76424571453e-13
3.28423119642e-05
-9.77914383674e-13
3.28423121313e-05
-1.0072929791e-12
3.28423123152e-05
-1.02736885041e-12
3.2842312529e-05
-1.05867479684e-12
3.28423128085e-05
-1.1196456239e-12
3.28423130724e-05
-1.23057675132e-12
3.28423132889e-05
-1.34707539931e-12
3.28423135616e-05
-1.49588716825e-12
3.2842313862e-05
-1.67228206988e-12
3.28423141511e-05
-1.78114846517e-12
3.28423145392e-05
-1.85745649533e-12
3.28423150079e-05
-1.99757503571e-12
3.28423154633e-05
-2.13473243166e-12
3.28423159679e-05
-2.19571870815e-12
3.28423165516e-05
-2.26038161299e-12
3.28423171186e-05
-2.30939711966e-12
3.2842317734e-05
-2.35692922546e-12
3.28423184325e-05
-2.43975224601e-12
3.28423191377e-05
-2.52195977949e-12
3.28423198746e-05
-2.58325865958e-12
3.28423206376e-05
-2.6613296773e-12
3.28423213762e-05
-2.72897306704e-12
3.28423222029e-05
-2.78667370921e-12
3.28423231294e-05
-2.91925641412e-12
3.28423239999e-05
-3.10671449397e-12
3.28423248816e-05
-3.27652834953e-12
3.28423258602e-05
-3.45019428721e-12
3.28423267969e-05
-3.61539327042e-12
3.28423277215e-05
-3.7469727102e-12
3.28423287629e-05
-3.89911110706e-12
3.28423298598e-05
-4.03955965436e-12
3.28423310483e-05
-4.12719764394e-12
3.28423324023e-05
-4.30593312666e-12
3.28423338223e-05
-4.62658649648e-12
3.28423354022e-05
-4.98603890501e-12
3.28423373009e-05
-5.40643141781e-12
3.28423393432e-05
-5.91143719719e-12
3.2842341489e-05
-6.46329706538e-12
3.28423439443e-05
-7.15787527406e-12
3.28423466652e-05
-8.00141641416e-12
3.28423497393e-05
-8.84266022661e-12
3.28423534713e-05
-9.77149817682e-12
3.28423577645e-05
-1.10499367191e-11
3.2842362766e-05
-1.27922006908e-11
3.28423688737e-05
-1.47701154535e-11
3.28423762417e-05
-1.72570796741e-11
3.28423849288e-05
-2.01774166523e-11
3.28423955879e-05
-2.3706423204e-11
3.28424087044e-05
-2.82990011343e-11
3.28424246008e-05
-3.40541348913e-11
3.28424441255e-05
-4.10386981323e-11
3.28424681975e-05
-4.9613525068e-11
3.28424979972e-05
-6.01992262582e-11
3.2842535535e-05
-7.34147022824e-11
3.28425807799e-05
-9.00492576641e-11
3.28426360985e-05
-1.10588078272e-10
3.28427042367e-05
-1.35814325184e-10
3.28427884301e-05
-1.6708680026e-10
3.28428922724e-05
-2.05883592611e-10
3.28430204694e-05
-2.53820192208e-10
3.28431790543e-05
-3.13161606747e-10
3.28433751957e-05
-3.86795246455e-10
3.28436177148e-05
-4.78074136646e-10
3.28439177118e-05
-5.91089478117e-10
3.28442888599e-05
-7.3100490628e-10
3.28447479906e-05
-9.04227845071e-10
3.28453163922e-05
-1.11874741408e-09
3.28460206369e-05
-1.38486385222e-09
3.28468923114e-05
-1.71507798077e-09
3.28479709147e-05
-2.12463507533e-09
3.28493068617e-05
-2.632311122e-09
3.28509617928e-05
-3.2616665854e-09
3.28530114313e-05
-4.04138994281e-09
3.28555508335e-05
-5.00714233533e-09
3.28586973141e-05
-6.20396864944e-09
3.28625953773e-05
-7.68735449823e-09
3.28674253624e-05
-9.52579446317e-09
3.28734111127e-05
-1.18050084229e-08
3.28808294809e-05
-1.46314191507e-08
3.28900250973e-05
-1.81371471381e-08
3.29014261197e-05
-2.24872829619e-08
3.29155640878e-05
-2.78877306503e-08
3.29331019671e-05
-3.45961049821e-08
3.29548655221e-05
-4.2935647638e-08
3.29818848156e-05
-5.33119850235e-08
3.30154498837e-05
-6.62373235359e-08
3.30571770162e-05
-8.23615351543e-08
3.31090978687e-05
-1.02511814631e-07
3.31737782594e-05
-1.27749344976e-07
3.32544721114e-05
-1.59447908909e-07
3.33553302333e-05
-1.99403982779e-07
3.3481688437e-05
-2.49997885162e-07
3.36404750983e-05
-3.14437330489e-07
3.38407999382e-05
-3.97140931458e-07
3.40948395206e-05
-5.04370938709e-07
3.44192246597e-05
-6.45344775726e-07
3.48372620124e-05
-8.34300982205e-07
3.53825568301e-05
-1.09456164093e-06
3.61047031697e-05
-1.46688202121e-06
3.70769850491e-05
-2.0269279171e-06
3.84018455623e-05
-2.92043508238e-06
4.01909921716e-05
-4.42711076675e-06
4.24312041126e-05
-7.06021204998e-06
-1.15882703236e-05
4.45422113151e-05
5.35705196741e-05
8.95186849958e-06
5.55863041372e-05
1.58501387192e-05
5.52410559593e-05
1.62553926859e-05
5.35976117817e-05
1.40474469127e-05
5.15429018583e-05
1.11562353416e-05
4.95819391652e-05
8.45146979332e-06
4.79262578763e-05
6.22439755477e-06
4.66200626951e-05
4.49838724777e-06
4.56322853156e-05
3.2042252059e-06
4.49067850081e-05
2.25378147754e-06
4.43856084206e-05
1.56604860483e-06
4.4018096616e-05
1.07444290704e-06
4.3763308106e-05
7.26986041196e-07
4.35896119886e-05
4.84190952189e-07
4.34732831299e-05
3.16561924226e-07
4.33969092506e-05
2.02341162861e-07
4.33479346371e-05
1.25652504096e-07
4.33174451963e-05
7.50318624163e-08
4.32992041726e-05
4.22884802707e-08
4.32889109661e-05
2.16348696044e-08
4.32836450173e-05
9.02941077761e-09
4.32814557689e-05
1.68649348629e-09
4.32810610599e-05
-2.29683900636e-09
4.32816427635e-05
-4.18929932082e-09
4.32826874119e-05
-4.82674364723e-09
4.32838866609e-05
-4.75208176577e-09
4.32850650901e-05
-4.30840352881e-09
4.32861315688e-05
-3.70606109918e-09
4.32870469098e-05
-3.06895000247e-09
4.32878027136e-05
-2.46567756196e-09
4.32884077004e-05
-1.93025201752e-09
4.3288879101e-05
-1.4756175268e-09
4.32892374439e-05
-1.10244782465e-09
4.32895034027e-05
-8.04744332713e-10
4.32896960404e-05
-5.73251059513e-10
4.32898320464e-05
-3.97564971229e-10
4.32899254146e-05
-2.67436163674e-10
4.3289987443e-05
-1.73460007546e-10
4.3290027049e-05
-1.07433975946e-10
4.3290051072e-05
-6.24973816624e-11
4.32900645659e-05
-3.30385810885e-11
4.32900712443e-05
-1.45763165341e-11
4.32900741391e-05
-3.83730369767e-12
4.32900744169e-05
1.8070252859e-12
4.32900732898e-05
4.44684010761e-12
4.32900716735e-05
5.12057393893e-12
4.32900699584e-05
4.75568935882e-12
4.32900683631e-05
3.92784180888e-12
4.32900670363e-05
2.96311536815e-12
4.3290066015e-05
2.02417291404e-12
4.32900653276e-05
1.21069224446e-12
4.32900649643e-05
4.91950351498e-13
4.3290064748e-05
-2.16602282382e-14
4.32900646023e-05
-3.94954834009e-13
4.32900644988e-05
-6.29101858092e-13
4.32900644095e-05
-8.15360766184e-13
4.32900643024e-05
-9.33182252241e-13
4.32900642584e-05
-9.9131298663e-13
4.32900642645e-05
-1.04102889676e-12
4.32900642644e-05
-1.08369347942e-12
4.32900643053e-05
-1.15375727897e-12
4.32900643403e-05
-1.2964999787e-12
4.3290064306e-05
-1.46543850503e-12
4.32900642863e-05
-1.61787846276e-12
4.32900643079e-05
-1.77229180843e-12
4.32900643061e-05
-1.89529765358e-12
4.32900643476e-05
-1.97948875401e-12
4.32900644657e-05
-2.10005469559e-12
4.32900645823e-05
-2.24457857997e-12
4.32900647557e-05
-2.34221661108e-12
4.32900649925e-05
-2.40645307033e-12
4.32900651928e-05
-2.45712297312e-12
4.329006539e-05
-2.49178974955e-12
4.32900656669e-05
-2.54618723323e-12
4.32900659568e-05
-2.61750423521e-12
4.3290066264e-05
-2.68003269974e-12
4.32900666236e-05
-2.76641788257e-12
4.32900669468e-05
-2.8775692346e-12
4.32900672696e-05
-2.98812431706e-12
4.32900676685e-05
-3.14382695052e-12
4.32900680291e-05
-3.35662346221e-12
4.32900683676e-05
-3.56347460697e-12
4.32900688113e-05
-3.76406391549e-12
4.32900692435e-05
-3.96085851648e-12
4.32900696316e-05
-4.12379216823e-12
4.32900701519e-05
-4.30293291209e-12
4.32900707703e-05
-4.5275253195e-12
4.32900714266e-05
-4.74654601779e-12
4.32900722344e-05
-5.06125748665e-12
4.32900731619e-05
-5.53539323702e-12
4.32900742286e-05
-6.04945600264e-12
4.32900756138e-05
-6.63107508074e-12
4.32900772005e-05
-7.38648720443e-12
4.32900788889e-05
-8.25467259022e-12
4.3290080969e-05
-9.26102710487e-12
4.32900835191e-05
-1.05142781461e-11
4.32900865191e-05
-1.19261108931e-11
4.32900903937e-05
-1.35418260937e-11
4.32900952419e-05
-1.56483521386e-11
4.32901007156e-05
-1.82769104097e-11
4.32901073594e-05
-2.14151235996e-11
4.32901155859e-05
-2.53172471709e-11
4.32901254289e-05
-3.01108457901e-11
4.32901374322e-05
-3.59157656411e-11
4.32901523044e-05
-4.31647629812e-11
4.32901705104e-05
-5.22267770833e-11
4.32901929113e-05
-6.34124283977e-11
4.32902205056e-05
-7.72719927238e-11
4.32902542938e-05
-9.43769755381e-11
4.32902960218e-05
-1.15475398956e-10
4.32903478427e-05
-1.41822472071e-10
4.32904117932e-05
-1.74487999156e-10
4.32904907281e-05
-2.14804008584e-10
4.32905884632e-05
-2.64721082603e-10
4.32907093025e-05
-3.26651600792e-10
4.32908585731e-05
-4.03296329675e-10
4.32910432287e-05
-4.98056865118e-10
4.32912717652e-05
-6.15401010371e-10
4.3291554525e-05
-7.60819505367e-10
4.32919044351e-05
-9.40966113437e-10
4.32923375696e-05
-1.16412555136e-09
4.32928737076e-05
-1.44053332817e-09
4.32935373656e-05
-1.78281129754e-09
4.32943593142e-05
-2.20699353941e-09
4.32953773523e-05
-2.73302564037e-09
4.32966376419e-05
-3.3851243292e-09
4.32981982693e-05
-4.19311656442e-09
4.33001312911e-05
-5.19449088886e-09
4.33025252103e-05
-6.43529368902e-09
4.33054903731e-05
-7.97236762337e-09
4.33091636881e-05
-9.87706198551e-09
4.33137139917e-05
-1.22376871517e-08
4.33193511393e-05
-1.51632657686e-08
4.33263359768e-05
-1.87899047937e-08
4.33349913091e-05
-2.32867976919e-08
4.33457181659e-05
-2.88639990405e-08
4.33590148679e-05
-3.57836962864e-08
4.33754995743e-05
-4.43726874173e-08
4.33959422042e-05
-5.50391081262e-08
4.34213013239e-05
-6.82947062069e-08
4.34527701496e-05
-8.47813687627e-08
4.34918396658e-05
-1.05307409529e-07
4.35403745775e-05
-1.30896172175e-07
4.36007110405e-05
-1.62848071717e-07
4.36757870171e-05
-2.02825323855e-07
4.37693099146e-05
-2.52970535151e-07
4.38859784564e-05
-3.16072141991e-07
4.40317817031e-05
-3.95801053702e-07
4.42144081539e-05
-4.97063524326e-07
4.44438114489e-05
-6.26543468014e-07
4.47330061737e-05
-7.93565549677e-07
4.50991973626e-05
-1.01153559298e-06
4.55653395379e-05
-1.30044261848e-06
4.61621234598e-05
-1.69134547396e-06
4.69298137482e-05
-2.23457187402e-06
4.79174374997e-05
-3.01455175955e-06
4.9171623359e-05
-4.17462067698e-06
5.06948013311e-05
-5.95028856715e-06
5.23260337413e-05
-8.69144576115e-06
-1.27721976362e-05
5.35099614152e-05
5.27606083397e-05
6.19126020288e-06
5.57402399367e-05
1.28705069845e-05
5.73124107471e-05
1.46832217957e-05
5.76111966531e-05
1.37486610724e-05
5.71338684541e-05
1.16335635756e-05
5.6319987495e-05
9.26535073591e-06
5.54496560954e-05
7.09472895254e-06
5.4663728125e-05
5.28431513795e-06
5.40144615913e-05
3.85349158717e-06
5.35069270651e-05
2.76131586567e-06
5.31250151865e-05
1.94796040561e-06
5.28457343691e-05
1.35372370978e-06
5.26461959031e-05
9.26524565527e-07
5.25065089571e-05
6.23878025148e-07
5.24105875389e-05
4.12483491971e-07
5.23459941299e-05
2.6693473514e-07
5.23034089841e-05
1.6823779905e-07
5.22760136682e-05
1.02427299328e-07
5.22589171416e-05
5.93850974803e-08
5.2248671551e-05
3.18805145471e-08
5.22428859389e-05
1.48150701656e-08
5.22399298504e-05
4.64265819989e-09
5.22387041633e-05
-1.07105590312e-09
5.22384963639e-05
-3.98140745943e-09
5.22388393236e-05
-5.16963787039e-09
5.22394429307e-05
-5.35567412891e-09
5.22401323451e-05
-4.99784547948e-09
5.22408078587e-05
-4.38162389275e-09
5.22414176354e-05
-3.67880584406e-09
5.22419395058e-05
-2.9876407547e-09
5.22423689481e-05
-2.35976918654e-09
5.22427112535e-05
-1.81800163565e-09
5.22429766392e-05
-1.36791968564e-09
5.22431772047e-05
-1.00535804611e-09
5.22433250534e-05
-7.21087108388e-10
5.22434313275e-05
-5.03731241941e-10
5.22435057177e-05
-3.41603918502e-10
5.22435562412e-05
-2.23730070337e-10
5.22435893543e-05
-1.4035291715e-10
5.22436101387e-05
-8.31734262659e-11
5.22436224364e-05
-4.53455948223e-11
5.22436291364e-05
-2.13789238755e-11
5.22436322644e-05
-7.08278151263e-12
5.22436331367e-05
7.81431262488e-13
5.22436328671e-05
4.49539125107e-12
5.22436320133e-05
5.74277405634e-12
5.22436309593e-05
5.57211509746e-12
5.22436299136e-05
4.73194267004e-12
5.22436290475e-05
3.66752395801e-12
5.2243628395e-05
2.60347224983e-12
5.22436278976e-05
1.67586797173e-12
5.22436274764e-05
9.25638128658e-13
5.2243627099e-05
3.58009600835e-13
5.22436267129e-05
-8.32610087676e-14
5.22436264993e-05
-4.83585027945e-13
5.22436263911e-05
-7.23307312336e-13
5.22436262854e-05
-8.42295217552e-13
5.22436261846e-05
-8.87982999536e-13
5.2243626082e-05
-9.39804550587e-13
5.22436259232e-05
-1.01175779215e-12
5.22436257587e-05
-1.10130804473e-12
5.22436256188e-05
-1.25380543896e-12
5.22436254379e-05
-1.43740814274e-12
5.22436252757e-05
-1.58457934162e-12
5.22436251927e-05
-1.72138430991e-12
5.22436250786e-05
-1.86150739207e-12
5.22436249272e-05
-1.97158742723e-12
5.22436248548e-05
-2.08380359535e-12
5.22436248381e-05
-2.20217822875e-12
5.22436248498e-05
-2.26700251026e-12
5.22436249207e-05
-2.30780051608e-12
5.22436249616e-05
-2.36542209902e-12
5.22436249509e-05
-2.40641485435e-12
5.22436249935e-05
-2.43910629578e-12
5.22436250575e-05
-2.48499341843e-12
5.22436251004e-05
-2.52109124916e-12
5.22436251792e-05
-2.59431018222e-12
5.22436252274e-05
-2.74540179158e-12
5.22436252088e-05
-2.90889707737e-12
5.22436252535e-05
-3.08199154951e-12
5.22436253427e-05
-3.30628807206e-12
5.22436254003e-05
-3.52586482912e-12
5.22436255158e-05
-3.73678424008e-12
5.22436256647e-05
-3.98608738917e-12
5.2243625769e-05
-4.20665996887e-12
5.22436259395e-05
-4.39193782127e-12
5.22436261594e-05
-4.65094130494e-12
5.22436263359e-05
-4.98650209987e-12
5.22436266238e-05
-5.4095027894e-12
5.22436270985e-05
-5.98214077978e-12
5.22436276931e-05
-6.6434323432e-12
5.22436285241e-05
-7.40589161925e-12
5.22436295833e-05
-8.39702030913e-12
5.22436307434e-05
-9.55353110378e-12
5.2243632262e-05
-1.08294333007e-11
5.2243634325e-05
-1.24009084039e-11
5.22436367754e-05
-1.43027067448e-11
5.22436398294e-05
-1.65428749181e-11
5.22436438044e-05
-1.94205901438e-11
5.22436486531e-05
-2.30767018479e-11
5.22436546724e-05
-2.74199961248e-11
5.22436623887e-05
-3.27590621554e-11
5.22436718675e-05
-3.94785558517e-11
5.224368347e-05
-4.77382021979e-11
5.22436980298e-05
-5.78921065563e-11
5.22437161456e-05
-7.04491315613e-11
5.22437386177e-05
-8.59623713165e-11
5.22437665872e-05
-1.05248238372e-10
5.22438011701e-05
-1.29140647953e-10
5.22438439841e-05
-1.5853434795e-10
5.22438971373e-05
-1.94948294645e-10
5.22439628869e-05
-2.40174802839e-10
5.22440441046e-05
-2.96159277905e-10
5.2244144742e-05
-3.65411995294e-10
5.22442694599e-05
-4.51229840901e-10
5.22444237958e-05
-5.57542984286e-10
5.22446148088e-05
-6.89138970521e-10
5.22448512948e-05
-8.52083634631e-10
5.224514404e-05
-1.05387212978e-09
5.22455064617e-05
-1.30371376763e-09
5.2245955337e-05
-1.61312290311e-09
5.22465113143e-05
-1.99649731312e-09
5.22471996066e-05
-2.47140759402e-09
5.22480519365e-05
-3.05965742881e-09
5.22491078732e-05
-3.78870203377e-09
5.2250415389e-05
-4.6924119644e-09
5.22520342966e-05
-5.81220924645e-09
5.22540395154e-05
-7.1996506813e-09
5.2256523052e-05
-8.91871146433e-09
5.22595988384e-05
-1.10484159917e-08
5.22634088338e-05
-1.36871680492e-08
5.22681283835e-05
-1.69572034611e-08
5.22739745239e-05
-2.10097604389e-08
5.22812172547e-05
-2.6032872837e-08
5.22901908485e-05
-3.22604026753e-08
5.23013096769e-05
-3.99828916748e-08
5.23150886622e-05
-4.95623583986e-08
5.2332165828e-05
-6.14498222206e-08
5.23533341236e-05
-7.62077338071e-08
5.23795799159e-05
-9.45401591236e-08
5.24121280611e-05
-1.17329419481e-07
5.24525038772e-05
-1.45683720529e-07
5.25026091244e-05
-1.81001651018e-07
5.25648161633e-05
-2.25055086632e-07
5.26420906435e-05
-2.80099667881e-07
5.27381472549e-05
-3.49027206174e-07
5.28576500972e-05
-4.3557499122e-07
5.30064700977e-05
-5.44620999561e-07
5.31920189104e-05
-6.82612453235e-07
5.34236777594e-05
-8.58201947684e-07
5.3713332237e-05
-1.08321978344e-06
5.40760047196e-05
-1.37420814236e-06
5.45304627111e-05
-1.75490076097e-06
5.50994056416e-05