/*--------------------------------*- C++ -*----------------------------------*\
| =========                 |                                                 |
| \\      /  F ield         | OpenFOAM: The Open Source CFD Toolbox           |
|  \\    /   O peration     | Version:  2106                                  |
|   \\  /    A nd           | Website:  www.openfoam.com                      |
|    \\/     M anipulation  |                                                 |
\*---------------------------------------------------------------------------*/
FoamFile
{
    version     2.0;
    format      ascii;
    arch        "LSB;label=32;scalar=64";
    class       volVectorField;
    location    "0.1";
    object      U;
}
// * * * * * * * * * * * * * * * * * * * * * * * * * * * * * * * * * * * * * //

dimensions      [0 1 -1 0 0 0 0];

internalField   nonuniform List<vector> 
9600
(
(0.675396182424 0.157677435794 0)
(0.563826151031 0.102430808136 0)
(0.381538905015 0.0510646994418 0)
(0.283853139469 0.0244589977304 0)
(0.232280949095 0.0119348342975 0)
(0.201907596612 0.00623037233375 0)
(0.183178266834 0.00352194199971 0)
(0.171271837338 0.00212008839068 0)
(0.163512123324 0.0013252406298 0)
(0.15839264356 0.000841445674925 0)
(0.155010888651 0.000534100025606 0)
(0.152790525925 0.000334968894805 0)
(0.15134978561 0.000205405309192 0)
(0.150431118739 0.000121621638162 0)
(0.149859378991 6.82011218481e-05 0)
(0.149515380014 3.48732052153e-05 0)
(0.149318405979 1.47181799588e-05 0)
(0.149214280924 3.06928026564e-06 0)
(0.149167089337 -3.20312261108e-06 0)
(0.149153383802 -6.163384363e-06 0)
(0.149158221297 -7.11061046523e-06 0)
(0.149172266935 -7.00903101102e-06 0)
(0.1491898783 -6.36665530064e-06 0)
(0.149207860733 -5.49196455514e-06 0)
(0.14922451189 -4.57105688627e-06 0)
(0.149239052059 -3.70494356723e-06 0)
(0.149251248826 -2.94078092796e-06 0)
(0.149261173872 -2.29394365226e-06 0)
(0.149269052043 -1.76249698919e-06 0)
(0.149275170631 -1.33608387905e-06 0)
(0.149279826643 -1.00091013959e-06 0)
(0.149283298833 -7.42542691502e-07 0)
(0.149285834731 -5.47228912476e-07 0)
(0.149287645723 -4.02212096475e-07 0)
(0.149288907346 -2.96279337902e-07 0)
(0.149289761898 -2.20153165378e-07 0)
(0.1492903214 -1.65983026182e-07 0)
(0.149290672037 -1.27147994491e-07 0)
(0.149290879086 -9.84476258147e-08 0)
(0.149290990915 -7.62726391311e-08 0)
(0.149291043182 -6.03471432435e-08 0)
(0.149291057557 -5.49661860917e-08 0)
(0.149291047785 -5.58537589817e-08 0)
(0.149291026686 -6.15786755873e-08 0)
(0.149291002513 -6.84656352475e-08 0)
(0.149290978747 -7.54864762314e-08 0)
(0.149290957011 -8.23099278046e-08 0)
(0.14929093847 -8.93095176514e-08 0)
(0.149290923343 -9.72079366895e-08 0)
(0.149290911154 -1.06587703451e-07 0)
(0.14929090183 -1.17076236081e-07 0)
(0.149290895126 -1.28078494818e-07 0)
(0.149290890177 -1.38930635406e-07 0)
(0.149290886448 -1.49758788202e-07 0)
(0.149290883345 -1.61081036157e-07 0)
(0.149290879887 -1.73186042851e-07 0)
(0.149290876071 -1.86541668311e-07 0)
(0.149290872195 -2.01303088343e-07 0)
(0.149290867884 -2.16845954091e-07 0)
(0.149290863405 -2.32876830285e-07 0)
(0.149290859315 -2.49622487688e-07 0)
(0.149290855214 -2.67214255613e-07 0)
(0.149290850876 -2.86164647333e-07 0)
(0.149290846207 -3.0699719897e-07 0)
(0.14929084044 -3.29325329458e-07 0)
(0.149290834017 -3.52905760082e-07 0)
(0.149290828356 -3.78048315445e-07 0)
(0.149290823274 -4.04463756289e-07 0)
(0.149290818455 -4.32069044629e-07 0)
(0.149290814648 -4.61597711818e-07 0)
(0.149290811293 -4.93036962694e-07 0)
(0.149290807341 -5.25958369752e-07 0)
(0.149290803234 -5.60732440553e-07 0)
(0.149290799194 -5.97437232868e-07 0)
(0.149290795217 -6.35783882044e-07 0)
(0.149290792119 -6.76203217089e-07 0)
(0.14929078943 -7.19038251002e-07 0)
(0.149290785817 -7.64187386043e-07 0)
(0.149290781516 -8.11595501616e-07 0)
(0.149290776897 -8.6063383146e-07 0)
(0.149290771911 -9.11092757515e-07 0)
(0.149290767187 -9.64410993414e-07 0)
(0.149290762046 -1.02129339142e-06 0)
(0.149290755204 -1.080882916e-06 0)
(0.149290747778 -1.14318543975e-06 0)
(0.149290740539 -1.20847571606e-06 0)
(0.149290732605 -1.27605586282e-06 0)
(0.149290724993 -1.34591034067e-06 0)
(0.149290718923 -1.41857139132e-06 0)
(0.149290713548 -1.49413278826e-06 0)
(0.149290709031 -1.57302857111e-06 0)
(0.149290705881 -1.65501949459e-06 0)
(0.149290703196 -1.73890131533e-06 0)
(0.149290701309 -1.8252922453e-06 0)
(0.149290700356 -1.91575182991e-06 0)
(0.149290698924 -2.00990386592e-06 0)
(0.149290698999 -2.10704787547e-06 0)
(0.149290703674 -2.20654745311e-06 0)
(0.149290711527 -2.30653090376e-06 0)
(0.149290722578 -2.40735472341e-06 0)
(0.149290739689 -2.51158058567e-06 0)
(0.149290761992 -2.61887125582e-06 0)
(0.149290789842 -2.72788449043e-06 0)
(0.149290827873 -2.83902268615e-06 0)
(0.14929087735 -2.95141548747e-06 0)
(0.149290939368 -3.06476736253e-06 0)
(0.149291020187 -3.18162538794e-06 0)
(0.149291124523 -3.30327427988e-06 0)
(0.149291255096 -3.43035709762e-06 0)
(0.149291416911 -3.56732251578e-06 0)
(0.149291618098 -3.72005312472e-06 0)
(0.149291869859 -3.88292673289e-06 0)
(0.149292186602 -4.05683308305e-06 0)
(0.14929258227 -4.24312982338e-06 0)
(0.149293072126 -4.44020272021e-06 0)
(0.149293680378 -4.64772375605e-06 0)
(0.149294436854 -4.86687710166e-06 0)
(0.14929537413 -5.09827646774e-06 0)
(0.149296534741 -5.34407561189e-06 0)
(0.149297974376 -5.60843739855e-06 0)
(0.149299759398 -5.89497232351e-06 0)
(0.149301970536 -6.20787467331e-06 0)
(0.149304716065 -6.56051486503e-06 0)
(0.149308149224 -6.99803979141e-06 0)
(0.149312409189 -7.62468968546e-06 0)
(0.149317653712 -8.42551044971e-06 0)
(0.149324130522 -9.36196798154e-06 0)
(0.149332144938 -1.04218740962e-05 0)
(0.149342067949 -1.16093179005e-05 0)
(0.149354363753 -1.29437608822e-05 0)
(0.149369597459 -1.44479681749e-05 0)
(0.149388465674 -1.61474961407e-05 0)
(0.149411842204 -1.80827667956e-05 0)
(0.149440806917 -2.03031556285e-05 0)
(0.149476694494 -2.2863896854e-05 0)
(0.149521169903 -2.58378912128e-05 0)
(0.149576300598 -2.93168487024e-05 0)
(0.149644654426 -3.3415149462e-05 0)
(0.149729434775 -3.82848932353e-05 0)
(0.149834628764 -4.41152486659e-05 0)
(0.149965210864 -5.11410946e-05 0)
(0.150127412121 -5.96678906188e-05 0)
(0.150329036306 -7.00820362704e-05 0)
(0.150579893459 -8.28772457476e-05 0)
(0.15089237402 -9.86984660666e-05 0)
(0.151282176307 -0.000118376693353 0)
(0.151769303142 -0.000142988151875 0)
(0.152379429479 -0.00017395126121 0)
(0.153145775479 -0.000213147713333 0)
(0.154111753967 -0.000263080442071 0)
(0.155334852134 -0.00032712465915 0)
(0.156892570864 -0.00040999871149 0)
(0.158892298763 -0.000518984637412 0)
(0.161490856095 -0.000668428400269 0)
(0.164940607933 -0.000897341055699 0)
(0.169704630133 -0.00133516033343 0)
(0.176807630137 -0.00244446251036 0)
(0.189291235005 -0.00596750068162 0)
(0.216627924943 -0.018648329543 0)
(0.277534489411 -0.0662183692933 0)
(0.977201170559 0.296997127107 0)
(0.962687442917 0.250387286513 0)
(0.820645977451 0.158581041315 0)
(0.697824794426 0.0957993863002 0)
(0.610491515272 0.0579133205828 0)
(0.549133123876 0.0359038917316 0)
(0.506705792115 0.0229309539792 0)
(0.477661900327 0.0149788454885 0)
(0.457815386269 0.00990960721374 0)
(0.444278176057 0.00658304331171 0)
(0.4350884366 0.00436152098116 0)
(0.428897870145 0.00286609773696 0)
(0.424771951973 0.0018586664338 0)
(0.422060331792 0.00118313766228 0)
(0.420310004016 0.000734253281821 0)
(0.419206198657 0.000439856330511 0)
(0.418531423451 0.000250112817285 0)
(0.418136639033 0.000130575079786 0)
(0.417920799022 5.75225196105e-05 0)
(0.417816294222 1.47533802695e-05 0)
(0.417778537838 -8.65139706414e-06 0)
(0.41777870157 -2.00841430564e-05 0)
(0.417798644351 -2.43373824794e-05 0)
(0.417827233892 -2.44916867503e-05 0)
(0.417857921822 -2.24940255587e-05 0)
(0.417887105579 -1.9538622029e-05 0)
(0.417913018895 -1.63264560659e-05 0)
(0.417935000679 -1.32436022144e-05 0)
(0.417953024086 -1.04817261189e-05 0)
(0.417967399784 -8.11657148966e-06 0)
(0.417978592928 -6.15732180713e-06 0)
(0.417987114812 -4.57728488437e-06 0)
(0.417993462359 -3.33264204845e-06 0)
(0.41799808578 -2.37304644658e-06 0)
(0.418001374185 -1.64825646253e-06 0)
(0.41800365276 -1.11232537833e-06 0)
(0.4180051851 -7.24695811733e-07 0)
(0.418006179059 -4.50591187573e-07 0)
(0.418006794894 -2.61791764458e-07 0)
(0.418007152001 -1.36234383231e-07 0)
(0.41800733559 -5.79677724163e-08 0)
(0.418007408422 -1.66520045405e-08 0)
(0.418007415143 3.6513257077e-09 0)
(0.41800738855 1.25570044101e-08 0)
(0.418007349816 1.31205022438e-08 0)
(0.418007307445 8.83022668692e-09 0)
(0.418007266297 2.5581093605e-09 0)
(0.418007228952 -4.28488536476e-09 0)
(0.418007196263 -1.07860464573e-08 0)
(0.418007168705 -1.54406425592e-08 0)
(0.418007146842 -1.88624948302e-08 0)
(0.418007130364 -2.20176513586e-08 0)
(0.418007117523 -2.45444135565e-08 0)
(0.418007106563 -2.6519277323e-08 0)
(0.418007096545 -2.86322078764e-08 0)
(0.41800708623 -3.07949470852e-08 0)
(0.418007075342 -3.31179057703e-08 0)
(0.418007064711 -3.59319926058e-08 0)
(0.418007054107 -3.87374005886e-08 0)
(0.418007043116 -4.11493059646e-08 0)
(0.418007032113 -4.34624166444e-08 0)
(0.418007020578 -4.56928717792e-08 0)
(0.418007007937 -4.84210014289e-08 0)
(0.418006994699 -5.27176523881e-08 0)
(0.418006980549 -5.77694747906e-08 0)
(0.418006965264 -6.23610966515e-08 0)
(0.418006950289 -6.70042889026e-08 0)
(0.418006935714 -7.15834780637e-08 0)
(0.418006920365 -7.53420564718e-08 0)
(0.418006905149 -7.91848567383e-08 0)
(0.418006890733 -8.38543926798e-08 0)
(0.418006875701 -8.87382153071e-08 0)
(0.418006859694 -9.40420304934e-08 0)
(0.4180068432 -9.95339442306e-08 0)
(0.418006826065 -1.04194029575e-07 0)
(0.418006808906 -1.08751556738e-07 0)
(0.418006791756 -1.14365793236e-07 0)
(0.418006773466 -1.20785570093e-07 0)
(0.418006754752 -1.27824995909e-07 0)
(0.418006736328 -1.3492531421e-07 0)
(0.418006716506 -1.4129132841e-07 0)
(0.418006695111 -1.48250871864e-07 0)
(0.418006673377 -1.56760667162e-07 0)
(0.418006650585 -1.65360189496e-07 0)
(0.418006626682 -1.7411732741e-07 0)
(0.418006602763 -1.84049701262e-07 0)
(0.418006578483 -1.93748984355e-07 0)
(0.418006554761 -2.0267522983e-07 0)
(0.418006533281 -2.1244731389e-07 0)
(0.418006512782 -2.23600661337e-07 0)
(0.418006492962 -2.36390415109e-07 0)
(0.418006475891 -2.50617548344e-07 0)
(0.418006461108 -2.64306110814e-07 0)
(0.418006447729 -2.78070497707e-07 0)
(0.418006436972 -2.94795428041e-07 0)
(0.418006429036 -3.13709164498e-07 0)
(0.418006426142 -3.33648551827e-07 0)
(0.418006433067 -3.56200919253e-07 0)
(0.418006449032 -3.80805015662e-07 0)
(0.418006472508 -4.07350477325e-07 0)
(0.418006508757 -4.39111727888e-07 0)
(0.418006561267 -4.76481580256e-07 0)
(0.418006631519 -5.17003930832e-07 0)
(0.418006727019 -5.62864198937e-07 0)
(0.418006853579 -6.15095162848e-07 0)
(0.418007013659 -6.71721044299e-07 0)
(0.418007217307 -7.34752089527e-07 0)
(0.418007477298 -8.06738794544e-07 0)
(0.418007801854 -8.8702808255e-07 0)
(0.418008201707 -9.71935725059e-07 0)
(0.418008706928 -1.05136886608e-06 0)
(0.418009348317 -1.13454338788e-06 0)
(0.41801015373 -1.23136736744e-06 0)
(0.41801116261 -1.34977361991e-06 0)
(0.418012420196 -1.49275474954e-06 0)
(0.418013984878 -1.66552009167e-06 0)
(0.418015932146 -1.87802859633e-06 0)
(0.418018350471 -2.14000234494e-06 0)
(0.418021348124 -2.46258585924e-06 0)
(0.418025064446 -2.86243864999e-06 0)
(0.418029672336 -3.36089000597e-06 0)
(0.418035380013 -3.9848453612e-06 0)
(0.41804243721 -4.77331167949e-06 0)
(0.418051144587 -5.79257954647e-06 0)
(0.418061926059 -7.16163323428e-06 0)
(0.418075333542 -8.93237262072e-06 0)
(0.418091996126 -1.11593721523e-05 0)
(0.418112672047 -1.39278184491e-05 0)
(0.418138303789 -1.73503160357e-05 0)
(0.418170075691 -2.15830688986e-05 0)
(0.418209457489 -2.68185676236e-05 0)
(0.418258258962 -3.32864796537e-05 0)
(0.418318732138 -4.1281599306e-05 0)
(0.418393677998 -5.11708213626e-05 0)
(0.418486563051 -6.33991264037e-05 0)
(0.418601692778 -7.85235069619e-05 0)
(0.418744421154 -9.72375401703e-05 0)
(0.418921400138 -0.000120403184655 0)
(0.419140914791 -0.000149111253908 0)
(0.419413289986 -0.000184727222859 0)
(0.419751405154 -0.000228961365677 0)
(0.420171379221 -0.000283988438344 0)
(0.420693413448 -0.000352567624443 0)
(0.421342889601 -0.000438218613854 0)
(0.422151850751 -0.000545486741913 0)
(0.423160922902 -0.000680274492145 0)
(0.42442189093 -0.000850318329949 0)
(0.426001264788 -0.00106591083144 0)
(0.4279852826 -0.00134098247153 0)
(0.430487143024 -0.00169478740571 0)
(0.433657910848 -0.00215477786776 0)
(0.437703848879 -0.00276197557674 0)
(0.442915635256 -0.00358214425599 0)
(0.44972178115 -0.00473250247829 0)
(0.458793901563 -0.00645262603393 0)
(0.471248880357 -0.00930105591884 0)
(0.489026956608 -0.0147041570141 0)
(0.515853168427 -0.0265504033257 0)
(0.559091361966 -0.0558307688174 0)
(0.624015039386 -0.130009483502 0)
(1.03387038486 0.239240976705 0)
(1.0831407945 0.293634420478 0)
(1.03294431756 0.239131999676 0)
(0.954408103805 0.174539100243 0)
(0.880112438187 0.12155154267 0)
(0.818677455447 0.0832336385003 0)
(0.771466683231 0.0568257697963 0)
(0.736691633053 0.0388123641332 0)
(0.711672524603 0.0264908374468 0)
(0.693954206237 0.0180226943745 0)
(0.681570336024 0.0121861866294 0)
(0.673022318042 0.00816435902626 0)
(0.667198184826 0.00540255455753 0)
(0.663286706464 0.00351824724378 0)
(0.660703135263 0.00224449015648 0)
(0.659030349112 0.00139374819483 0)
(0.657973865487 0.000834028260861 0)
(0.657328033287 0.000472625208813 0)
(0.656950915216 0.000244771406139 0)
(0.656745811477 0.000105568349514 0)
(0.656647773837 2.41839642187e-05 0)
(0.656613886816 -2.02459384899e-05 0)
(0.656616391685 -4.16804318042e-05 0)
(0.656637742584 -4.93558086255e-05 0)
(0.656667160526 -4.91893305434e-05 0)
(0.656698315723 -4.49239180233e-05 0)
(0.656727735971 -3.88556308484e-05 0)
(0.656753731628 -3.23341690416e-05 0)
(0.656775688452 -2.61067324536e-05 0)
(0.656793611676 -2.05462009498e-05 0)
(0.656807836213 -1.57991047915e-05 0)
(0.656818847277 -1.18803262862e-05 0)
(0.656827173834 -8.73343403212e-06 0)
(0.656833327051 -6.2676427093e-06 0)
(0.656837767326 -4.37971295451e-06 0)
(0.656840890853 -2.96734872663e-06 0)
(0.656843026575 -1.93622388478e-06 0)
(0.656844438841 -1.20312073323e-06 0)
(0.656845334834 -6.98026427656e-07 0)
(0.656845872968 -3.63907143683e-07 0)
(0.656846170962 -1.54181261454e-07 0)
(0.656846315143 -3.04567365662e-08 0)
(0.656846364642 3.68756149772e-08 0)
(0.656846357944 7.49287715261e-08 0)
(0.656846322493 9.22329173388e-08 0)
(0.656846276789 9.48635326349e-08 0)
(0.656846230016 8.92778190037e-08 0)
(0.656846187019 7.99486929326e-08 0)
(0.656846150635 6.95136640063e-08 0)
(0.656846120185 6.05246678636e-08 0)
(0.656846093718 5.3773884634e-08 0)
(0.656846071668 4.94595802474e-08 0)
(0.656846053685 4.78567606685e-08 0)
(0.65684603818 4.86413616082e-08 0)
(0.656846024393 5.09455095191e-08 0)
(0.656846011306 5.44387304028e-08 0)
(0.656845997925 5.91595656881e-08 0)
(0.656845984453 6.4222452022e-08 0)
(0.656845970785 6.94030946946e-08 0)
(0.656845956616 7.51703117712e-08 0)
(0.65684594245 8.11731127634e-08 0)
(0.656845927849 8.73696823542e-08 0)
(0.656845911637 9.40371139037e-08 0)
(0.656845894468 1.00546453352e-07 0)
(0.656845877066 1.06988383945e-07 0)
(0.656845858725 1.14537294055e-07 0)
(0.656845840029 1.22828811087e-07 0)
(0.656845821801 1.31096878685e-07 0)
(0.656845802958 1.40289024355e-07 0)
(0.656845783325 1.50759873395e-07 0)
(0.65684576385 1.61857492435e-07 0)
(0.656845743722 1.73491879715e-07 0)
(0.656845722492 1.85523032439e-07 0)
(0.656845701111 1.97820806785e-07 0)
(0.656845679262 2.11403750726e-07 0)
(0.656845656522 2.26342676546e-07 0)
(0.656845633115 2.41804787999e-07 0)
(0.656845608409 2.58304156011e-07 0)
(0.656845582872 2.75784722554e-07 0)
(0.656845557704 2.9309755358e-07 0)
(0.656845531592 3.1082337639e-07 0)
(0.656845503805 3.29791114383e-07 0)
(0.656845475936 3.49595006571e-07 0)
(0.656845447351 3.70795564142e-07 0)
(0.656845416729 3.93535808868e-07 0)
(0.656845385632 4.16753267528e-07 0)
(0.656845355071 4.41498610832e-07 0)
(0.656845325119 4.68753944206e-07 0)
(0.656845296826 4.96485717746e-07 0)
(0.656845269574 5.23915215942e-07 0)
(0.656845243073 5.52029349928e-07 0)
(0.656845220175 5.80684377086e-07 0)
(0.656845201371 6.10544137084e-07 0)
(0.656845184746 6.420013929e-07 0)
(0.656845171594 6.73121934544e-07 0)
(0.656845163176 7.04384867954e-07 0)
(0.656845159998 7.37719765834e-07 0)
(0.656845166418 7.71199503737e-07 0)
(0.656845185138 8.05141587402e-07 0)
(0.656845216443 8.43122556857e-07 0)
(0.656845265414 8.81792960951e-07 0)
(0.656845337907 9.17890618891e-07 0)
(0.65684543626 9.53003329338e-07 0)
(0.656845567878 9.84724747714e-07 0)
(0.656845744069 1.00809097181e-06 0)
(0.656845972618 1.02346824729e-06 0)
(0.656846265325 1.03043707399e-06 0)
(0.656846640405 1.02472971885e-06 0)
(0.656847119116 1.00271603596e-06 0)
(0.656847731022 9.62452016862e-07 0)
(0.656848498086 9.07298962462e-07 0)
(0.656849443945 8.2531491845e-07 0)
(0.656850617522 7.05083253018e-07 0)
(0.656852078862 5.3083943909e-07 0)
(0.656853895534 2.87030483765e-07 0)
(0.656856149871 -4.40741684561e-08 0)
(0.656858948583 -4.8861879604e-07 0)
(0.656862422296 -1.07831106754e-06 0)
(0.656866728642 -1.84844704876e-06 0)
(0.656872064605 -2.84338833454e-06 0)
(0.656878675995 -4.12082528883e-06 0)
(0.656886865311 -5.75301216798e-06 0)
(0.656897009051 -7.82902268728e-06 0)
(0.656909575401 -1.04546711329e-05 0)
(0.656925140721 -1.37436733511e-05 0)
(0.656944413798 -1.78762043295e-05 0)
(0.656968280483 -2.30866254913e-05 0)
(0.656997846126 -2.96547216703e-05 0)
(0.657034468983 -3.79133320198e-05 0)
(0.65707983687 -4.82781903982e-05 0)
(0.657136047904 -6.12727007401e-05 0)
(0.657205688977 -7.75381260057e-05 0)
(0.657291969854 -9.78683006286e-05 0)
(0.65739888377 -0.000123255881479 0)
(0.657531376921 -0.000154929635437 0)
(0.657695588224 -0.000194414972339 0)
(0.657899150512 -0.000243614495779 0)
(0.658151541755 -0.000304898582744 0)
(0.658464557101 -0.000381236286195 0)
(0.658852894309 -0.000476350537232 0)
(0.659334870119 -0.000594911658172 0)
(0.659933375839 -0.00074282555835 0)
(0.660677077751 -0.000927590527273 0)
(0.661601939422 -0.00115875961137 0)
(0.662753255079 -0.00144861558046 0)
(0.664188314991 -0.00181309968122 0)
(0.665979938869 -0.00227311214586 0)
(0.668221298517 -0.00285644075466 0)
(0.671032632455 -0.00360070162671 0)
(0.674570813547 -0.00455800586351 0)
(0.679043424104 -0.00580281900905 0)
(0.684730315675 -0.00744612481414 0)
(0.692017665058 -0.00966284107101 0)
(0.701453496056 -0.0127486893258 0)
(0.713839860632 -0.0172452419794 0)
(0.73037065554 -0.0242223028823 0)
(0.752774208782 -0.0358958311677 0)
(0.783407837628 -0.0569031774865 0)
(0.824807784211 -0.0967706505372 0)
(0.873192897747 -0.172085343273 0)
(1.03384128171 0.171306968746 0)
(1.10231583175 0.275556807243 0)
(1.11663616442 0.266312468444 0)
(1.09207917406 0.219892714799 0)
(1.05195410656 0.16821040927 0)
(1.01022213994 0.123615350305 0)
(0.973507737139 0.0888849019469 0)
(0.943886188652 0.0630489980884 0)
(0.92116346618 0.0442598508052 0)
(0.90430120783 0.0307727871819 0)
(0.892088638614 0.0211804198481 0)
(0.883415371544 0.0144134920586 0)
(0.877361469062 0.00968016776632 0)
(0.87320563462 0.00640062055936 0)
(0.870401326911 0.00415289827332 0)
(0.868544253915 0.00263155469312 0)
(0.867340931827 0.00161678759306 0)
(0.866581721901 0.000951543935331 0)
(0.866119079982 0.000524543894226 0)
(0.865850654529 0.00025769600448 0)
(0.865706488437 9.67848497668e-05 0)
(0.865639520877 4.64334931483e-06 0)
(0.865618612886 -4.38474363802e-05 0)
(0.865623614763 -6.55318940781e-05 0)
(0.865641812836 -7.13500804583e-05 0)
(0.865665393001 -6.83506937361e-05 0)
(0.865689798396 -6.09559753933e-05 0)
(0.865712554854 -5.18461996861e-05 0)
(0.865732484868 -4.25740071057e-05 0)
(0.865749194346 -3.39769414672e-05 0)
(0.865762739014 -2.64493345657e-05 0)
(0.865773411306 -2.0119018716e-05 0)
(0.865781608779 -1.49615304327e-05 0)
(0.865787754907 -1.08721031829e-05 0)
(0.865792253005 -7.7090820666e-06 0)
(0.865795463131 -5.32056127299e-06 0)
(0.865797692651 -3.56026764531e-06 0)
(0.865799193897 -2.29567336494e-06 0)
(0.865800167817 -1.41231742039e-06 0)
(0.865800770435 -8.15172620134e-07 0)
(0.865801118968 -4.27123796631e-07 0)
(0.86580130021 -1.87473935091e-07 0)
(0.865801379506 -5.06010784808e-08 0)
(0.865801397573 2.0132182734e-08 0)
(0.865801377501 4.94431423891e-08 0)
(0.865801339472 5.42827368526e-08 0)
(0.865801296243 4.56947401272e-08 0)
(0.865801253507 3.10454439844e-08 0)
(0.865801214602 1.43165998626e-08 0)
(0.865801181055 -2.23206200849e-09 0)
(0.865801153144 -1.59663093153e-08 0)
(0.865801131082 -2.59580771025e-08 0)
(0.865801113055 -3.38536356674e-08 0)
(0.865801096485 -4.09670650966e-08 0)
(0.865801080371 -4.82832625285e-08 0)
(0.865801064141 -5.51537361141e-08 0)
(0.865801046939 -6.05683030405e-08 0)
(0.865801029202 -6.49908626806e-08 0)
(0.865801011621 -6.92592787676e-08 0)
(0.865800993557 -7.36078388334e-08 0)
(0.865800974911 -7.89268081013e-08 0)
(0.865800955656 -8.58006698556e-08 0)
(0.865800934634 -9.3314924213e-08 0)
(0.865800912007 -1.00980334031e-07 0)
(0.865800888895 -1.08968923127e-07 0)
(0.865800864879 -1.16554197216e-07 0)
(0.865800839832 -1.23928555806e-07 0)
(0.865800814651 -1.32484637208e-07 0)
(0.865800788957 -1.41700588295e-07 0)
(0.865800762612 -1.50257932348e-07 0)
(0.865800736306 -1.5834062769e-07 0)
(0.86580070902 -1.66343581915e-07 0)
(0.865800679895 -1.74464789837e-07 0)
(0.865800650082 -1.83566630727e-07 0)
(0.865800619891 -1.9344573722e-07 0)
(0.865800588769 -2.03530287993e-07 0)
(0.865800557066 -2.14348937589e-07 0)
(0.865800524174 -2.25735172182e-07 0)
(0.865800489433 -2.37643525111e-07 0)
(0.865800453906 -2.51635124119e-07 0)
(0.865800417386 -2.67514591922e-07 0)
(0.865800379098 -2.8340053581e-07 0)
(0.865800340492 -2.99576031128e-07 0)
(0.865800301504 -3.16647645834e-07 0)
(0.865800260407 -3.33813128693e-07 0)
(0.865800218683 -3.51372207333e-07 0)
(0.86580017816 -3.69794096436e-07 0)
(0.865800138146 -3.89298008533e-07 0)
(0.865800098981 -4.11878616567e-07 0)
(0.865800061202 -4.38213385763e-07 0)
(0.865800024653 -4.66471736099e-07 0)
(0.865799991627 -4.96932554881e-07 0)
(0.865799963213 -5.3079040094e-07 0)
(0.865799937354 -5.67623140844e-07 0)
(0.865799915629 -6.08461556117e-07 0)
(0.865799901554 -6.53838982264e-07 0)
(0.865799895938 -7.01620620049e-07 0)
(0.865799903143 -7.53125156714e-07 0)
(0.865799928508 -8.11180684018e-07 0)
(0.865799969863 -8.74067013344e-07 0)
(0.865800028851 -9.43079232286e-07 0)
(0.865800114991 -1.02198508104e-06 0)
(0.865800233387 -1.11087945711e-06 0)
(0.865800389759 -1.21141996397e-06 0)
(0.865800596316 -1.33052697146e-06 0)
(0.865800864791 -1.47223587969e-06 0)
(0.86580120872 -1.63927529718e-06 0)
(0.865801646895 -1.83835013426e-06 0)
(0.86580219911 -2.0778243913e-06 0)
(0.865802893212 -2.37193477842e-06 0)
(0.865803767121 -2.74263559098e-06 0)
(0.865804862007 -3.19733831671e-06 0)
(0.865806227711 -3.75032560912e-06 0)
(0.865807929848 -4.42684321357e-06 0)
(0.865810048646 -5.25698381877e-06 0)
(0.865812679748 -6.27414723401e-06 0)
(0.865815944874 -7.52260438648e-06 0)
(0.865819996783 -9.06055637839e-06 0)
(0.865825021485 -1.09582383212e-05 0)
(0.865831249227 -1.33006007322e-05 0)
(0.865838967421 -1.61934182201e-05 0)
(0.865848530596 -1.97676912106e-05 0)
(0.865860376453 -2.41870276859e-05 0)
(0.865875051443 -2.96631787884e-05 0)
(0.865893233479 -3.64565419437e-05 0)
(0.865915752448 -4.48764227232e-05 0)
(0.865943638279 -5.53020714634e-05 0)
(0.865978177623 -6.82136631152e-05 0)
(0.866020957535 -8.42017286327e-05 0)
(0.866073943249 -0.000103998652986 0)
(0.866139578161 -0.000128527879045 0)
(0.86622088347 -0.000158931297985 0)
(0.866321601832 -0.000196618741207 0)
(0.866446384456 -0.000243352848167 0)
(0.866600997543 -0.0003013244804 0)
(0.866792593089 -0.000373253804516 0)
(0.867030057059 -0.00046253802849 0)
(0.867324418482 -0.000573412728732 0)
(0.867689387606 -0.000711171431869 0)
(0.868142035764 -0.000882454595891 0)
(0.868703610734 -0.00109559552938 0)
(0.869400609568 -0.00136110407646 0)
(0.870266150476 -0.00169230475449 0)
(0.871341679246 -0.00210615386585 0)
(0.872679204259 -0.00262437886589 0)
(0.874344220274 -0.00327507002816 0)
(0.876419517771 -0.00409491407543 0)
(0.879010266561 -0.00513243486502 0)
(0.882250915048 -0.0064528724807 0)
(0.886314660866 -0.00814580598029 0)
(0.891426679968 -0.0103375580635 0)
(0.897882900866 -0.0132124822616 0)
(0.906076494927 -0.0170513711599 0)
(0.916533997981 -0.0223035580844 0)
(0.929959479603 -0.0297262840612 0)
(0.947264469151 -0.0406544970998 0)
(0.96949133768 -0.0574899997855 0)
(0.997444432719 -0.0844476185269 0)
(1.03054955276 -0.128333873835 0)
(1.0624578799 -0.197525429865 0)
(1.02388346036 0.119322010734 0)
(1.08875435645 0.231514496814 0)
(1.13660481193 0.252869051877 0)
(1.15406269931 0.228905170431 0)
(1.15000110209 0.188337469332 0)
(1.13537625262 0.146577251385 0)
(1.11757789364 0.110164527911 0)
(1.10059231849 0.080836880937 0)
(1.08612309166 0.0582488060547 0)
(1.07458887322 0.0413394344419 0)
(1.06578891756 0.0289326474671 0)
(1.05928492498 0.0199717531919 0)
(1.05459637596 0.0135876933147 0)
(1.05128753649 0.00909792432164 0)
(1.0489974394 0.00598114433319 0)
(1.04744257111 0.00384685677839 0)
(1.04640806347 0.00240698065359 0)
(1.04573530426 0.00145179344055 0)
(1.04530964826 0.000830503789772 0)
(1.04504971686 0.000436010136597 0)
(1.04489870148 0.000193179828079 0)
(1.04481759078 4.99827561448e-05 0)
(1.04477996519 -2.91230769584e-05 0)
(1.04476836092 -6.81130856039e-05 0)
(1.04477145823 -8.28051072779e-05 0)
(1.04478200284 -8.35022355754e-05 0)
(1.04479556715 -7.67630139997e-05 0)
(1.04480956506 -6.66441313415e-05 0)
(1.04482258679 -5.55620225904e-05 0)
(1.04483396204 -4.48778739382e-05 0)
(1.04484346985 -3.52882313856e-05 0)
(1.04485114765 -2.70816424206e-05 0)
(1.04485716917 -2.03057327083e-05 0)
(1.04486176884 -1.48743045981e-05 0)
(1.04486519505 -1.06335967627e-05 0)
(1.04486768358 -7.40335026664e-06 0)
(1.04486944424 -5.00238249263e-06 0)
(1.04487065445 -3.26257846761e-06 0)
(1.04487145859 -2.03590247785e-06 0)
(1.04487197132 -1.19742919764e-06 0)
(1.04487228086 -6.44511941703e-07 0)
(1.04487245333 -2.94747392098e-07 0)
(1.04487253753 -8.55975102588e-08 0)
(1.04487256569 2.61337410938e-08 0)
(1.04487256057 7.67761736205e-08 0)
(1.04487253906 9.21913525449e-08 0)
(1.04487251037 8.84212567018e-08 0)
(1.04487247979 7.6186388892e-08 0)
(1.04487245082 6.18557724783e-08 0)
(1.04487242531 4.86319098746e-08 0)
(1.04487240287 3.79776769357e-08 0)
(1.04487238216 2.9298691799e-08 0)
(1.04487236192 2.12837303783e-08 0)
(1.04487234149 1.50285186736e-08 0)
(1.04487232192 1.16508770319e-08 0)
(1.04487230412 9.80658321807e-09 0)
(1.04487228659 9.44773930264e-09 0)
(1.04487226824 1.04983790061e-08 0)
(1.04487224908 1.19423597272e-08 0)
(1.04487222847 1.33923431998e-08 0)
(1.04487220626 1.44490905873e-08 0)
(1.04487218319 1.4368263647e-08 0)
(1.04487215889 1.38880999405e-08 0)
(1.04487213331 1.39538893009e-08 0)
(1.04487210769 1.43126589768e-08 0)
(1.04487208155 1.5285698622e-08 0)
(1.04487205356 1.71242812369e-08 0)
(1.04487202461 1.875247538e-08 0)
(1.04487199561 2.02766091063e-08 0)
(1.04487196624 2.29074633102e-08 0)
(1.04487193661 2.62160121684e-08 0)
(1.04487190604 2.98064760377e-08 0)
(1.04487187327 3.40335296582e-08 0)
(1.04487183906 3.83801242984e-08 0)
(1.04487180426 4.26601520548e-08 0)
(1.04487176826 4.74478643386e-08 0)
(1.04487173115 5.20985261028e-08 0)
(1.04487169272 5.62462294544e-08 0)
(1.04487165182 6.05942034491e-08 0)
(1.04487160933 6.4516756915e-08 0)
(1.04487156652 6.77655458282e-08 0)
(1.04487152271 7.19068856095e-08 0)
(1.04487147803 7.68193964991e-08 0)
(1.04487143289 8.14815636508e-08 0)
(1.04487138606 8.69306996913e-08 0)
(1.04487133798 9.33385570815e-08 0)
(1.04487129002 9.93936348936e-08 0)
(1.04487124126 1.04877562991e-07 0)
(1.04487119204 1.09073572522e-07 0)
(1.04487114444 1.11261167973e-07 0)
(1.04487109871 1.12814472049e-07 0)
(1.04487105566 1.13381648725e-07 0)
(1.04487101652 1.10944372587e-07 0)
(1.04487097986 1.06254128934e-07 0)
(1.0448709469 9.94304212082e-08 0)
(1.04487092219 8.84271646956e-08 0)
(1.04487090626 7.36462047417e-08 0)
(1.04487089994 5.38572026917e-08 0)
(1.04487090872 2.29735785277e-08 0)
(1.04487093497 -2.1223974563e-08 0)
(1.04487098101 -7.73537498218e-08 0)
(1.04487105576 -1.49898258323e-07 0)
(1.04487116557 -2.43044371604e-07 0)
(1.04487131432 -3.59352793077e-07 0)
(1.04487151349 -5.0578837157e-07 0)
(1.0448717777 -6.89643609691e-07 0)
(1.04487212152 -9.17805977851e-07 0)
(1.04487256444 -1.20121662638e-06 0)
(1.04487312841 -1.55050249609e-06 0)
(1.04487384026 -1.97732146551e-06 0)
(1.04487473737 -2.50284637798e-06 0)
(1.04487586368 -3.15158103841e-06 0)
(1.04487727005 -3.95114048219e-06 0)
(1.04487902345 -4.93799738046e-06 0)
(1.04488120928 -6.15805777892e-06 0)
(1.04488392897 -7.66403866132e-06 0)
(1.0448873073 -9.52103308684e-06 0)
(1.04489150092 -1.18131595253e-05 0)
(1.04489670334 -1.46440860008e-05 0)
(1.04490315409 -1.8140182748e-05 0)
(1.04491115217 -2.2459847002e-05 0)
(1.04492106782 -2.78000682009e-05 0)
(1.04493335445 -3.44027568709e-05 0)
(1.04494857489 -4.25720076853e-05 0)
(1.04496743374 -5.2689672927e-05 0)
(1.04499079623 -6.52216004456e-05 0)
(1.04501972799 -8.07382317912e-05 0)
(1.04505556098 -9.99526479332e-05 0)
(1.04509994508 -0.000123745987761 0)
(1.04515491592 -0.000153206852863 0)
(1.04522300224 -0.000189695803789 0)
(1.04530733999 -0.000234900404905 0)
(1.0454118082 -0.000290906970777 0)
(1.04554122008 -0.000360314208905 0)
(1.04570154636 -0.00044635369107 0)
(1.04590018566 -0.000553039929165 0)
(1.04614632204 -0.000685380090281 0)
(1.04645134826 -0.000849614670159 0)
(1.04682940285 -0.0010535320787 0)
(1.04729806549 -0.00130689146473 0)
(1.04787918154 -0.00162193270893 0)
(1.04859991582 -0.00201405305738 0)
(1.04949411509 -0.00250272040028 0)
(1.05060398416 -0.00311264788872 0)
(1.0519822213 -0.00387537793928 0)
(1.05369476256 -0.00483148531586 0)