/*--------------------------------*- C++ -*----------------------------------*\
| =========                 |                                                 |
| \\      /  F ield         | OpenFOAM: The Open Source CFD Toolbox           |
|  \\    /   O peration     | Version:  2106                                  |
|   \\  /    A nd           | Website:  www.openfoam.com                      |
|    \\/     M anipulation  |                                                 |
\*---------------------------------------------------------------------------*/
FoamFile
{
    version     2.0;
    format      ascii;
    arch        "LSB;label=32;scalar=64";
    class       volScalarField;
    location    "0.31";
    object      p;
}
// * * * * * * * * * * * * * * * * * * * * * * * * * * * * * * * * * * * * * //

dimensions      [0 2 -2 0 0 0 0];

internalField   nonuniform List<scalar> 
11200
(
150.039821353
147.111219538
145.997368694
145.470037568
145.102708298
144.807930795
144.546288366
144.297751681
144.053235314
143.808169484
143.559857016
143.3065433
143.046996442
142.78028096
142.505630006
142.22237011
141.929875391
141.627539819
141.314764602
140.990961704
140.65550738
140.307752635
139.947039121
139.572698932
139.184046423
138.780380249
138.36098421
137.925127911
137.472067475
137.001046149
136.511294847
136.002032686
135.472467152
134.921794313
134.34919954
133.753858681
133.134937874
132.491593711
131.822973649
131.128216436
130.406452379
129.656803577
128.878384182
128.070300502
127.231650936
126.361525705
125.459006352
124.523165007
123.553063314
122.547750893
121.506263228
120.427618832
119.310815525
118.154825601
116.958589594
115.721008407
114.440933428
113.117154053
111.748381896
110.333230891
108.870192323
107.357603244
105.793606236
104.176100666
102.502676509
100.770528596
98.976346663
97.1161709129
95.1851974348
93.1775117456
91.0857249301
88.9004774395
86.6095707842
84.1968185461
81.6401348819
78.9078598016
75.9523936364
72.7011606352
69.0004356668
64.2371914096
148.246779363
146.888605221
146.097633733
145.597619505
145.206631731
144.882750086
144.598230268
144.33362965
144.07814356
143.825623484
143.572242104
143.315485934
143.053618043
142.785362036
142.509717474
142.225849464
141.933020545
141.630547873
141.31777305
140.994034261
140.658681409
140.311038999
139.950463286
139.576286048
139.187811223
138.784331762
138.365128648
137.929469666
137.476609645
137.005790843
136.516243161
136.007184137
135.477819414
134.927348711
134.354959354
133.75982721
133.141118146
132.497988715
131.829586396
131.135049993
130.413509947
129.664088579
128.885900365
128.078052057
127.23964263
126.369763032
125.467495743
124.531914097
123.562081265
122.557048786
121.515854532
120.437519995
119.321046698
118.165411505
116.969560607
115.732401956
114.452795699
113.129542105
111.761366288
110.346899085
108.884653298
107.372993621
105.810096293
104.193898268
102.522031793
100.791756374
98.9998566947
97.1424955675
95.2150338513
93.2117871433
91.1256867875
88.9477765353
86.6665088064
84.266747743
81.7280981432
79.0220516771
76.107810297
72.9275404493
69.3784535972
65.2656966144
147.25158907
146.597388615
146.045032884
145.607415267
145.235791976
144.913691186
144.62459269
144.354360464
144.093899331
143.837420349
143.58103855
143.322072327
143.058609737
142.78922386
142.512793587
142.228390235
141.935204114
141.632496652
141.319569604
140.995746174
140.66036435
140.31278454
139.952262652
139.578144952
139.189739313
138.786336156
138.367214171
137.931640051
137.478868304
137.008141401
136.518690126
136.009734302
135.480482925
134.930128557
134.357853438
133.762835836
133.144242738
132.501231216
131.832949599
131.138537524
130.417126295
129.667839182
128.88979177
128.082092102
127.243840702
126.374130414
125.472046041
124.536663775
123.567050298
122.562261462
121.521340451
120.443315238
119.327195231
118.17196691
116.976588265
115.739981705
114.461025091
113.13854053
111.771280106
110.357907868
108.896976765
107.386899877
105.825913148
104.212047794
102.543066456
100.81637545
99.0289332852
97.1771416538
95.2566867777
93.2623304496
91.1876232996
89.0245026678
86.7628737993
84.3898210244
81.888623533
79.2374214292
76.4082418164
73.3694699473
70.0851282269
66.5321984813
146.701827831
146.338446462
145.938548428
145.569558056
145.231941662
144.923839783
144.638477275
144.367774336
144.105403451
143.846737598
143.588358782
143.327735538
143.062968114
142.79258927
142.515422887
142.230486398
141.936923465
141.633957934
141.320862741
140.996938018
140.661492855
140.313837042
139.953329289
139.579246396
139.190877648
138.787515362
138.368437978
137.932910938
137.480187609
137.009509438
136.520106039
136.011195426
135.481984885
134.931672722
134.359448825
133.764487685
133.145957261
132.503015369
131.834809382
131.140479401
130.41915755
129.669968129
128.892028154
128.084447519
127.246329053
126.376768468
125.474854137
124.539666654
123.570278092
122.565750844
121.525135948
120.447470918
119.331776807
118.177054387
116.982279277
115.746395766
114.468308787
113.146873738
111.780883663
110.369052968
108.910000217
107.402227511
105.844073826
104.233679866
102.568944261
100.847468437
99.0664772613
97.2227189656
95.3123408652
93.3307334032
91.2723397991
89.1304307924
86.8967749504
84.5613305936
82.1120089163
79.5347120146
76.8146953978
73.9422525614
70.9209809368
67.7880601053
146.367779831
146.135984333
145.834571934
145.523594922
145.218755649
144.926732711
144.647757829
144.378632636
144.115673414
143.855589997
143.595622021
143.333532135
143.067527874
142.796160167
142.518232298
142.232727277
141.938752491
141.635498785
141.322210913
140.998166303
140.662660054
140.314995777
139.954477067
139.580393324
139.19204743
138.788723085
138.369693485
137.934221642
137.48155957
137.010948142
136.521617056
136.012785005
135.483659806
134.93343812
134.361306055
133.766439924
133.148005239
132.505160004
131.837054947
131.142830601
130.421621618
129.672554617
128.894749055
128.087317578
127.249366245
126.379994608
125.478295683
124.543355709
123.574253566
122.570059894
121.529836271
120.452632805
119.337485876
118.183415001
116.989418613
115.754468306
114.477501368
113.157414241
111.793049269
110.383186963
108.9265246
107.421650165
105.867026448
104.260958816
102.601553711
100.886669309
99.1138582861
97.2802990357
95.3827124098
93.4172644864
91.3794586934
89.2640306192
87.0648720689
84.7750644977
82.3871871373
79.8942309879
77.2920002115
74.5849369701
71.7944002801
68.971084598
146.164387274
145.988485216
145.747290542
145.479964959
145.202778399
144.926140716
144.654451819
144.387951078
144.125186866
143.864179098
143.602892917
143.339461326
143.072258901
142.799894806
142.521176142
142.235065225
141.940640064
141.637061331
141.323546347
140.999349312
140.663746768
140.316026769
139.955479894
139.581396444
139.193065887
138.789767491
138.370771787
137.935339726
137.482721808
137.012157636
136.522875907
136.014094508
135.485020725
134.934851351
134.362773108
133.767963319
133.14959054
132.506814592
131.838786839
131.144651756
130.423544856
129.674593476
128.896919138
128.08963703
127.251856587
126.382681907
125.481211676
124.54653907
123.577751508
122.57393006
121.534148052
120.457470318
119.342951242
118.189632339
116.996539121
115.762677429
114.487029072
113.168541529
111.80612424
110.398627731
108.944835961
107.443456275
105.893105143
104.292266516
102.63927339
100.932276029
99.1692037845
97.3477233158
95.4651950676
93.5186334904
91.5046825799
89.4196309215
87.2595125018
85.0203861648
82.6989668359
80.2939029623
77.8082626183
75.2541997827
72.6586622819
70.0687447992
146.041270393
145.885662793
145.679361209
145.442799563
145.187325205
144.9240469
144.659435174
144.395928281
144.133796933
143.872213305
143.609843416
143.345210802
143.07688571
142.803559601
142.524060316
142.237340323
141.942454771
141.638537907
141.324781734
141.000418301
140.664705705
140.316917466
139.956334764
139.582240119
139.193914714
138.790632833
138.371662142
137.936261385
137.483679514
137.013155262
136.52391695
136.015182477
135.486159412
134.936045294
134.36402802
133.769285788
133.150987559
132.508293993
131.840357396
131.146321459
130.425321595
129.676488974
128.89894951
128.091822665
127.254222632
126.385258818
125.484036336
124.549656208
123.581215337
122.577806189
121.538516163
120.462427429
119.348615568
118.196147927
117.004081291
115.771458471
114.497304003
113.180622848
111.820389525
110.415543853
108.964984576
107.467551598
105.922015741
104.327064527
102.681286271
100.983151873
99.2309972281
97.4230088448
95.5572173329
93.6315084598
91.6436680819
89.5914904153
87.4729963775
85.2868533965
83.0331300563
80.7145840012
78.3387645043
75.9212695834
73.4889752298
71.0812356272
145.967190599
145.817180555
145.630425348
145.41432074
145.174615887
144.921796234
144.663161068
144.402425105
144.141060884
143.879142028
143.615927716
143.350294545
143.081002008
142.806828867
142.526631646
142.239360567
141.944054224
141.639825349
141.325844387
141.001324094
140.665506421
140.317651993
139.957031901
139.58292066
139.194594595
138.791322998
138.372370755
137.936994525
137.484441868
137.013950722
136.524749052
136.016054733
135.487075536
134.93700922
134.365043837
133.770358034
133.152121604
132.509495682
131.841633572
131.147681857
130.426782167
129.678067771
128.900665271
128.093697618
127.256283725
126.387538888
125.486575359
124.552502762
123.584428386
122.581457416
121.542693209
120.467236646
119.35418603
118.202636446
117.011678703
115.780397963
114.507871642
113.193165665
111.835332517
110.433403424
108.98638708
107.493263857
105.952979305
104.364436644
102.726491559
101.037948745
99.2975629244
97.5040485079
95.6561043048
93.7524654916
91.7919998317
89.7738776749
87.6978535303
85.5647398488
83.3771497219
81.1406166927
78.8651775344
76.5674364861
74.272074089
72.0110966509
145.92491411
145.775466569
145.599051611
145.395314504
145.16578344
144.920077076
144.665719452
144.407083715
144.146379849
143.884288869
143.6204949
143.354140085
143.084132882
142.809324649
142.528598701
142.24090694
141.945277417
141.640807631
141.326652208
141.002009497
140.666109265
140.318202283
139.957551954
139.583427785
139.195098658
138.791833835
138.372895062
137.937537217
137.48500687
137.014541422
136.525368624
136.016706389
135.487762704
134.937735705
134.365813973
133.771176954
133.152995541
132.510432648
131.842643986
131.148778232
130.42797579
129.679373561
128.902103156
128.095291913
127.258063838
126.389540453
125.488841608
124.555086176
123.587392687
122.584879909
121.54666741
120.471876174
119.359629056
118.209050986
117.019268939
115.789411614
114.51860888
113.205991778
111.850691675
110.451839608
109.008564095
107.519991445
105.985245844
104.403450588
102.773732613
101.09523165
99.3671173286
97.5886187013
95.7590729347
93.8780072176
91.945266822
89.9612187808
87.9270584729
85.8452776503
83.7203223189
81.5594878219
79.3740249661
77.1803448654
75.0004924373
72.8606460341
145.905637571
145.755759904
145.583797703
145.385863511
145.161303934
144.919186985
144.667054287
144.409548088
144.149223972
143.887066113
143.622979256
143.356247649
143.085861669
142.810713844
142.529703589
142.24178482
141.945980559
141.641380442
141.327130727
141.002422062
140.666477667
140.318543004
139.957877261
139.583746653
139.195418712
138.792159949
138.373231119
137.937886359
137.485371813
137.014924808
136.525773118
136.017134907
135.48821852
134.938222617
134.366336486
133.771740534
133.153606815
132.511099568
131.843375643
131.149585123
130.428872809
129.680377978
128.90323553
128.096577127
127.259532141
126.391228614
125.490794273
124.557357533
123.590048476
122.587999926
121.550348575
120.476236197
119.364810875
118.215228173
117.026652353
115.798257591
114.529229385
113.218765396
111.866078245
110.470398685
109.030974944
107.547080469
106.01801889
104.443132383
102.821815035
101.153532682
99.437852844
97.6744892235
95.8633672042
94.0047243139
92.0992527086
90.148321741
88.1542719255
86.1208572779
84.0537851412
81.961400331
79.8554268484
77.7516187194
75.669666574
73.6314947248
145.905640092
145.755775941
145.583824751
145.385899854
145.161348762
144.919239409
144.667113348
144.409612956
144.149293977
143.887140711
143.623058005
143.35633018
143.085947711
142.810803221
142.529796199
142.241880624
141.946079562
141.641482688
141.327236301
141.002531102
140.666590393
140.31865974
139.957998443
139.58387284
139.195550617
138.792298293
138.373376758
137.93804036
137.485535526
137.015099771
136.525961394
136.017339001
135.488441447
134.938467995
134.366608675
133.772044807
133.153949547
132.511488492
131.843820321
131.150097464
130.42946682
129.681070661
128.904047641
128.097533932
127.260664332
126.392573474
125.492397061
124.559273157
123.592343556
122.590755305
121.553662382
120.480227558
119.369624414
118.221039438
117.033674335
115.806748557
114.539502379
113.2312
111.881135335
110.488639416
109.053077952
107.573869159
106.050492067
104.482500768
102.86954522
101.211398117
99.5079924347
97.7594779574
95.9663005458
94.1293104489
92.2499384717
90.33048368
88.3740581498
86.3852861476
84.3706833224
82.3391511053
80.3024758583
78.2756751209
76.276651635
74.3244987798
145.924921726
145.77551504
145.599133339
145.395424254
145.165918752
144.9202351
144.665897266
144.407278854
144.146590312
143.884513028
143.620731427
143.354387902
143.084391181
142.80959289
142.528876579
142.241194341
141.945574374
141.641114289
141.326968828
141.002336499
140.666447305
140.318552309
139.957915241
139.583806016
139.195493868
138.792248169
138.373331071
137.937998013
137.485496366
137.015064484
136.525931326
136.01731613
135.488428393
134.938468078
134.366626051
133.772084605
133.154018072
132.511593444
131.843971068
131.150305369
130.429745694
129.681437334
128.904522613
128.098142132
127.26143606
126.393545535
125.493614127
124.560789411
123.59422472
122.593081116
121.556529592
120.483753579
119.373951725
118.226340892
117.040159514
115.814671542
114.549171261
113.24298852
111.895495195
110.506113841
109.074332475
107.599704047
106.081872374
104.520589216
102.915739843
101.267380448
99.575798921
97.8415786257
96.0656074569
94.2492616238
92.3945158225
90.5040561323
88.5818614011
86.6331883157
84.6650277369
82.6865329365
80.7093774187
78.7479656887
76.8190145086
74.9399645679
145.967203499
145.817262564
145.630563375
145.414505694
145.174843469
144.92206154
144.663459156
144.402751833
144.141412904
143.879516632
143.616322703
143.350708149
143.081432893
142.80727613
142.527094774
142.239839388
141.944548825
141.640336005
141.326371558
141.001868496
140.666069161
140.318234642
139.957636465
139.583549963
139.195251613
138.792011419
138.37309484
137.937759433
137.485254028
137.014818164
136.525681711
136.017064683
135.488177319
134.93822036
134.366385523
133.771856079
133.153807505
132.511408169
131.843820034
131.150199473
130.429698212
129.681464425
128.904643967
128.098381715
127.261823024
126.394115297
125.494409668
124.561862874
123.595639353
122.59491363
121.55887304
120.48672088
119.377679867
118.230995913
117.045942506
115.821825941
114.557991695
113.253831699
111.908792297
110.522386577
109.094205046
107.623935553
106.11137795
104.556472118
102.959332456
101.320271939
99.6398443801
97.9189110152
96.1587934003
94.361305017
92.5289002126
90.6648403188
88.773434142
86.86028395
84.9326080638
82.9995783647
81.0726357162
79.1657261431
77.2949815109
75.4773162727
146.041288969
145.885780487
145.679558586
145.443063069
145.1876484
144.92442262
144.659856364
144.396389082
144.134292646
143.872740149
143.610398337
143.34579137
143.077490078
142.804186498
142.524709026
142.238010621
141.943146808
141.639252095
141.325518716
141.00117904
140.665491687
140.317730876
139.95717846
139.583117728
139.19483035
138.791591496
138.372669731
137.937325039
137.48480808
137.014359756
136.525210986
136.016582654
135.487685785
134.937721912
134.365883584
133.771355012
133.153312758
132.51092649
131.843359729
131.14977071
130.429313403
129.681138689
128.904395728
128.098233405
127.26180192
126.39425453
125.494749456
124.562452019
123.596537039
122.596191634
121.560618457
120.489039415
119.380699687
118.23487224
117.050863214
115.828018363
114.565730767
113.263449852
111.920691871
110.537051758
109.112220483
107.646002326
106.138336066
104.589321434
102.999250016
101.368662095
99.6983922318
97.9896235623
96.243967493
94.4635659787
92.6512169105
90.8105200441
88.9460567309
87.0636014752
85.1703831907
83.2753852351
81.389686899
79.5268571841
77.7029059043
75.9352422795
146.164412238
145.988642336
145.747552467
145.48031276
145.203203019
144.92663245
144.655001375
144.388550858
144.125830828
143.864862426
143.603611754
143.340212612
143.073040297
142.800704698
142.522013623
142.23593002
141.94153236
141.637981601
141.324495247
141.000327743
140.664755983
140.317068791
139.956559408
139.582519513
139.194237177
138.790992628
138.372057904
137.936695586
137.484158256
137.013688246
136.52451755
136.015867928
135.486951197
134.936969658
134.365116684
133.770577369
133.152529234
132.510143066
131.842583733
131.149011126
130.428581296
129.68044768
128.90376252
128.097678394
127.261349928
126.393935691
125.494600335
124.562516925
123.596869674
122.596857129
121.561695873
120.490624625
119.382908772
118.23784561
117.054770642
115.833065144
114.572165067
113.27157122
111.930861443
110.549705179
109.127880479
107.665294419
106.162008374
104.618268641
103.034541743
101.411556249
99.7503556101
98.052361618
96.3194491397
94.5540311103
92.7591622935
90.9386598064
89.0972471226
87.2407152411
85.3761250221
83.5120696546
81.6590631969
79.8301859294
78.0414677337
76.311582297
146.367811932
146.136185807
145.834904924
145.52403401
145.219288491
144.92734667
144.648441244
144.379376166
144.116469742
143.856433359
143.596507845
143.334456824
143.068488707
142.797155312
142.51926083
142.233789092
141.939848073
141.636628897
141.323376335
140.999367933
140.663899329
140.316273897
139.955796253
139.581767126
139.193479843
138.790219723
138.371262293
137.935872634
137.483305134
137.012803432
136.523600505
136.014918909
135.485971183
134.935960363
134.364080618
133.769517965
133.15145096
132.509051484
131.841485567
131.147914375
130.427495513
129.679384465
128.902736081
128.096706151
127.260453225
126.393140617
125.493938658
124.562027228
123.596598781
122.596861951
121.562045572
120.491403122
119.384217696
118.239807973
117.057535294
115.836811972
114.577110321
113.277975291
111.939037865
110.560030782
109.140807483
107.681364498
106.181867942
104.64268526
103.064422823
101.447970354
99.7945514581
98.1057826654
96.3837429578
94.6310500649
92.8509454704
91.0473867522
89.2251480026
87.3899265621
85.5484736007
83.7087829993
81.8804759506
80.0757065913
78.3099895142
76.6031795095
146.70186715
146.338696026
145.938955033
145.570088823
145.232580292
144.924570245
144.639285435
144.368649158
144.106336424
143.847722102
143.589389643
143.328808745
143.064080715
142.793739422
142.516609964
142.231710989
141.938187275
141.63526356
141.322213144
140.998336934
140.662949251
140.315366577
139.954904912
139.580871531
139.192566161
138.789278452
138.370287062
137.934859376
137.482251328
137.011707594
136.522461931
136.013737514
135.484747371
134.934694972
134.362774966
133.768174035
133.150071671
132.507640728
131.840048361
131.146457318
130.42602727
129.677915266
128.901278292
128.095274804
127.25906653
126.391820591
125.492711891
124.560925935
123.595662125
122.596137545
121.561590889
120.491287591
119.384525202
118.240639839
117.059013825
115.839084852
114.580357264
113.282413182
111.944927468
110.567685122
109.150601401
107.693745452
106.197368276
104.661935748
103.088166975
101.477078762
99.8300361644
98.1488093242
96.4356359656
94.6932883179
92.9251420481
91.1352435374
89.3283689223
87.5100700927
85.6867112071
83.8655091255
82.0547662119
80.2648634807
78.5090154381
76.8058737557
147.25164048
146.597700473
146.045523156
145.608043064
145.236537329
144.914534798
144.625518218
144.35535541
144.094954125
143.838527551
143.58219231
143.323267998
143.059843708
142.790493525
142.514097382
142.229727678
141.936576068
141.63390603
141.321021584
140.997247236
140.661914842
140.314354203
139.953886394
139.579831171
139.191493019
138.788164867
138.369127926
137.933651434
137.480992816
137.010397723
136.521100604
136.012325231
135.483285211
134.933184605
134.361218614
133.76657409
133.148429648
132.505959327
131.838331168
131.144708544
130.424251585
129.676119535
128.899471331
128.093467585
127.257272618
126.390056614
125.490998144
124.559287098
123.594128116
122.594744569
121.56038336
120.490319501
119.383861949
118.240360573
117.059214202
115.839879998
114.5818844
113.284837812
111.948448701
110.572541791
109.157079208
107.702185345
106.208176062
104.675592562
103.105240336
101.498233286
99.8560431111
98.1805538649
96.4741189206
94.7396239822
92.9805424566
91.200984123
89.4057218928
87.6001851428
85.7903910631
83.9827274283
82.1838548432
80.4013323832
78.6422731718
76.9153698686
148.246878275
146.889062665
146.098316613
145.598474958
145.207636361
144.883882831
144.599473953
144.334971241
144.07957307
143.827133108
143.573825606
143.317138146
143.055334546
142.787138881
142.511550883
142.227735477
141.934954417
141.632523135
141.319784335
140.996089346
140.660778567
140.313202641
139.952709625
139.578616109
139.190230346
138.78684865
138.367753899
137.93221433
137.479489026
137.008825145
136.51945773
136.010610879
135.481498491
134.931324946
134.35928585
133.76456898
133.146355738
132.503819146
131.836127322
131.142444502
130.421931979
129.673749541
128.897057182
128.091016937
127.254794827
126.387563073
125.488502741
124.55680679
123.59168368
122.592361383
121.558091922
120.488156596
119.381872012
118.238597282
117.057742426
115.838778433
114.581249141
113.28478346
111.949112654
110.574088715
109.159705934
107.70612635
106.213709411
104.683046254
103.114998936
101.510744725
99.8718253568
98.2001988165
96.4982919801
94.7690789643
93.0161075403
91.2435458844
89.4561989501
87.6594846117
85.8592998776
84.061511373
82.2716489393
80.4944756665
78.7247941555
76.9330922195
150.039986921
147.111889502
145.998362199
145.471292389
145.104193982
144.809622488
144.548167317
144.299804339
144.055451947
143.81054324
143.5623833
143.309219397
143.049821456
142.783255929
142.508758109
142.225656758
141.933328082
141.631167394
141.318572075
140.99493461
140.659649808
140.312077719
139.951549431
139.577399697
139.188946319
138.785490038
138.366317012
137.930702261
137.477903544
137.007166479
136.517726122
136.008806734
135.479622307
134.929377283
134.357267272
133.762479748
133.144194945
132.501586878
131.833824317
131.140071826
130.419491096
129.671242562
128.89448697
128.088387143
127.252109991
126.384828836
125.485726061
124.553996244
123.58884976
122.589516888
121.555252446
120.485341081
119.379103374
118.235903202
117.055156239
115.836340047
114.579006011
113.282793248
111.947444722
110.572826051
109.158947617
107.705990597
106.214337014
104.684604426
103.117685714
101.514793244
99.8775086443
98.2078395336
96.5082828215
94.7818439474
93.032127882
91.2633717085
89.4804648217
87.6889264095
85.8948024993
84.1045904979
82.3247123677
80.5599537788
78.7898576211
76.8899556585
56.8431139179
53.2910518614
50.8996432206
48.942276258
47.2703178761
45.813603161
44.5281492946
43.3842455079
42.3602099482
41.4392833872
40.6080451235
39.855475151
39.1723576983
38.5508818424
37.9843583167
37.4670118532
36.9938220603
36.5604006185
36.1628935864
35.797901206
35.4624127127
35.153752391
34.8695354681
34.6076292127
34.3661208539
34.1432909866
33.9375894287
33.747614304
33.5720960843
33.4098816924
33.2599214989
33.1212585056
32.9930181895
32.8743998414
32.7646680323
32.6631463325
32.5692106662
32.482282114
32.4018208467
32.327317249
32.2582860815
32.1943219451
32.1353089721
32.080943727
32.0307389056
31.9842583972
31.9412077098
31.9013400029
31.8644208014
31.8302285361
31.79855947
31.7692412942
31.7420938352
31.7169329621
31.6936029196
31.671963038
31.6518777965
31.6332106165
31.6158430444
31.5996665806
31.5845804938
31.5704932367
31.5573200749
31.5449825859
31.533408488
31.5225306339
31.5122873338
31.5026220361
31.4934827849
31.4848213722
31.4765936174
31.4687586743
31.4612793723
31.4541220967
31.4472557675
31.440652357
31.4342859041
31.4281321409
31.4221690924
31.4163770047
31.4107385074
31.4052369957
31.3998567739
31.3945845371
31.3894080596
31.3843162671
31.3792989068
31.3743463985
31.3694493478
31.3645998734
31.3597917573
31.3550181288
31.3502718271
31.3455452791
31.340835388
31.3361366897
31.3314454455
31.326757621
31.3220830086
31.317414208
31.3127449358
31.3080710367
31.3033944703
31.2987422299
31.2940783432
31.2893911016
31.2846785297
31.2799347682
31.2751563845
31.2703418161
31.2654889633
31.2605963388
31.2556606534
31.2506798751
31.2456513859
31.2405733761
31.2354447895
31.2302633832
31.2250249322
31.2197164429
31.2143090883
31.2087678893
31.2031524698
31.1979207877
31.192881934
31.1877078461
31.1824216867
31.1771153684
31.1718295747
31.1665967026
31.1614605067
31.1564629077
31.1516538458
31.1470913422
31.1428367964
31.1389497549
31.1354879978
31.1325029119
31.1300218911
31.1280322599
31.1267694622
31.1259417629
31.1254873729
31.1248979447
31.1226193705
31.1145201803
31.0907175147
31.0295701902
30.8898851958
30.6011208589
30.0580338173
29.1276713534
27.6769816865
25.6126566959
22.9082772462
19.6199235341
15.8666197068
11.6176504014
6.59795929789
1.56878710747
60.0244690144
55.9716832509
53.2597399001
51.1074459607
49.305592113
47.7557758416
46.3997848657
45.2003779278
44.1313716629
43.1731194325
42.3102681996
41.5304587131
40.8235246438
40.1809625802
39.5955746584
39.0612028429
38.5725358479
38.1249614853
37.7144509706
37.3374655179
36.9908824677
36.6719354834
36.3781639696
36.1073715482
35.857590329
35.6270553796
35.4141737804
35.2175069528
35.0357532459
34.8677287363
34.7123575515
34.5686575692
34.4357321009
34.3127610812
34.1989902177
34.0937280813
33.9963402791
33.9062411106
33.82289499
33.7458116758
33.6745467458
33.6086734802
33.547679343
33.4912160788
33.4389526217
33.3906169657
33.3459200311
33.3045838295
33.2663495468
33.2309774516
33.1982422449
33.1679333174
33.1398577718
33.1138404421
33.0897201329
33.0673383114
33.0465538045
33.0272437756
33.0092892818
32.992578996
32.9770115534
32.9624931929
32.9489286596
32.9362381623
32.9243429503
32.913173823
32.9026680076
32.8927640343
32.8834098511
32.8745542157
32.8661508177
32.8581582793
32.8505363401
32.8432505991
32.8362689532
32.8295612614
32.8231012963
32.8168630936
32.810824455
32.8049644355
32.7992645395
32.7937081213
32.7882776848
32.7829604444
32.7777431069
32.7726143011
32.7675630755
32.7625796299
32.7576542091
32.7527785608
32.7479457096
32.7431506676
32.7383924165
32.7336572185
32.7289417311
32.724239001
32.719548029
32.7148588374
32.7101612772
32.70545019
32.7007236629
32.6959852611
32.6912297561
32.6864494504
32.6816449105
32.6768156094
32.6719645506
32.6670863685
32.6621793185
32.6572439695
32.6522711578
32.6472669893
32.6422245905
32.6371435363
32.6320221746
32.6268563767
32.6216507004
32.6164014986
32.6111128925
32.6057870776
32.6004325757
32.595067342
32.5896649704
32.5842190329
32.5785829972
32.5729461486
32.5675174468
32.5621247288
32.5567643025
32.5514863347
32.5463362239
32.5413620884
32.5366159605
32.532166785
32.52808585
32.5244431941
32.521316375
32.5187672248
32.516824723
32.5155766196
32.5150304658
32.5150820573
32.5155069166
32.5155728185
32.5132051501
32.5032857294
32.473990384
32.4004165809
32.2364622472
31.9053062245
31.2956400867
30.2715180534
28.7029385953
26.5063621368
23.66724556
20.2462125486
16.3602792724
11.9939317675
6.8859334911
1.70193718781
62.2318936546
58.2984842464
55.4313839313
53.1475297788
51.2456715979
49.6193370217
48.2034930163
46.956116879
45.8477767302
44.8565980941
43.9656703317
43.1615260074
42.4331976537
41.7715953154
41.1690845908
40.6191809036
40.1163248335
39.6557132495
39.2331688247
38.8450354855
38.4880968977
38.1595103527
37.8567518102
37.5775721129
37.3199580088
37.0821045651
36.8623843988
36.6593277005
36.4716045465
36.2980055929
36.1374317732
35.9888794508
35.8514314421
35.7242492438
35.6065622045
35.497662003
35.3968984437
35.3036698916
35.217422336
35.137641949
35.0638549381
34.995632708
34.9325501945
34.874008264
34.8198539789
34.7697983258
34.7235159003
34.6807137196
34.6411248325
34.6045026477
34.5706176871
34.5392594965
34.5102310531
34.4833483193
34.4584424385
34.4353503881
34.4139202941
34.3940214452
34.3755304141
34.358330685
34.3423109611
34.3273717266
34.3134225561
34.3003819415
34.2881695099
34.276712439
34.2659458637
34.2558057168
34.2462379137
34.2371895111
34.2286119678
34.220462525
34.2126991578
34.2052862277
34.1981898143
34.1913785616
34.1848253863
34.1785032065
34.1723890118
34.1664615905
34.1607004101
34.1550892504
34.1496093271
34.1442476363
34.1389899616
34.1338248114
34.1287408195
34.1237266816
34.1187728714
34.113870974
34.1090125623
34.1041900257
34.099392541
34.0946154582
34.0898588356
34.0851097917
34.0803674622
34.0756099765
34.0708530665
34.0660962879
34.0613332239
34.0565625701
34.0517793242
34.0469804176
34.0421611224
34.0373158466
34.0324451676
34.0275436008
34.0226068799
34.0176387317
34.0126289991
34.0075822317
34.0024937914
33.9973625669
33.9921877886
33.9869662762
33.9817008643
33.9763887504
33.9710337543
33.9656366387
33.9602019715
33.9547388763
33.9492315202
33.943697301
33.9381888896
33.9327247745
33.9271846868
33.9216110717
33.9160851452
33.9107137496
33.905528174
33.9005551285
33.8958509415
33.8914885726
33.8875476585
33.8841099353
33.8812793266
33.8791305452
33.8776538825
33.8769546751
33.8770556454
33.8778196146
33.8789040098
33.879319796
33.8764286639
33.8640544221
33.8284154387
33.7413384394
33.552014772
33.1778346843
32.5022531231
31.3872843135
29.7064364255
27.3852332319
24.4192474111
20.871828517
16.8566762221
12.3727049119
7.17347678729
1.83286191373
64.036069524
60.3114025102
57.4074787763
55.052390283
53.0824213087
51.398235063
49.934666637
48.6478269419
47.5064575286
46.4872196664
45.572085689
44.746752268
43.9996284099
43.3211600377
42.7033638315