/*--------------------------------*- C++ -*----------------------------------*\
| =========                 |                                                 |
| \\      /  F ield         | OpenFOAM: The Open Source CFD Toolbox           |
|  \\    /   O peration     | Version:  2106                                  |
|   \\  /    A nd           | Website:  www.openfoam.com                      |
|    \\/     M anipulation  |                                                 |
\*---------------------------------------------------------------------------*/
FoamFile
{
    version     2.0;
    format      ascii;
    arch        "LSB;label=32;scalar=64";
    class       volScalarField;
    location    "0.03";
    object      p;
}
// * * * * * * * * * * * * * * * * * * * * * * * * * * * * * * * * * * * * * //

dimensions      [0 2 -2 0 0 0 0];

internalField   nonuniform List<scalar> 
11200
(
158.265032373
155.336709229
154.223536743
153.697297051
153.331455266
153.038428717
152.77856023
152.531515684
152.28790996
152.042941336
151.793785554
151.538671694
151.276441561
151.006287322
150.727607816
150.440006171
150.142875507
149.835722974
149.518042624
149.189285194
148.848863728
148.496161208
148.13054768
147.751343864
147.357856554
146.949379424
146.525191369
146.084557582
145.626730248
145.150948812
144.656441104
144.142424373
143.60810498
143.052678663
142.475330945
141.87523738
141.251563807
140.603466616
139.930093065
139.23058164
138.504062435
137.749657457
136.966480841
136.153638938
135.310230277
134.435345323
133.528065993
132.587464872
131.612604043
130.602533474
129.556288828
128.472888584
127.351330324
126.190585996
124.989595843
123.747260621
122.462431679
121.133898402
119.760372422
118.340467759
116.872675893
115.355334144
113.786585534
112.164329974
110.486158481
108.749266844
106.950346379
105.085439997
103.149747657
101.137366595
99.0409498847
96.8511181662
94.5556765913
92.1385171545
89.5776648172
86.8416656196
83.8833312227
80.6316290796
76.9362569932
72.1754285642
156.471802567
155.113813484
154.323181686
153.823757282
153.433666809
153.110934923
152.827660064
152.564168135
152.309402485
152.056996073
151.80297438
151.544763999
151.280651005
151.009447824
150.730275306
150.442353904
150.145131937
149.838052674
149.520530894
149.19197665
148.851782775
148.499317927
148.133917921
147.754918543
147.361633447
146.953356759
146.529367298
146.088929621
145.631294616
145.155705034
144.661391957
144.147573028
143.613454405
143.058231709
142.481090428
141.881206107
141.257744581
140.609862262
139.93670646
139.23741577
138.511120453
137.756942762
136.973997168
136.161390474
135.318221798
134.443582361
133.536555047
132.596213666
131.621621842
130.611831451
129.565880517
128.482790447
127.361562483
126.201173131
125.000568297
123.758655757
122.474295561
121.14628793
119.773358041
118.354136882
116.887137399
115.370724433
113.803074425
112.182122732
110.505497426
108.770463559
106.97380572
105.111686871
103.179467992
101.17146012
99.0805736547
96.8978694099
94.6117973099
92.2072078625
89.6636884406
86.9527044463
84.0332743682
80.8467351863
77.2893953024
73.1582736707
155.476353517
154.822322102
154.270136341
153.832813381
153.461715913
153.140380087
152.852190789
152.582829677
152.322976377
152.066626301
151.809730124
151.549516031
151.28405882
151.011982927
150.732261999
150.444080281
150.146755228
149.83963152
149.522110667
149.193583499
148.85342863
148.50100969
148.135673708
147.756747413
147.36353977
146.955344602
146.531441599
146.091097298
145.633565817
145.15808376
144.663875541
144.150160836
143.616146936
143.061030253
142.483996854
141.884222706
141.260874018
140.613107597
139.940071219
139.240904045
138.514737026
137.760693245
136.977888186
136.165429907
135.322419066
134.447948776
133.541104236
132.600962132
131.626589618
130.617042872
129.571365158
128.4885843
127.367709418
126.207726704
125.007593951
123.766233523
122.482523363
121.155285614
119.783272256
118.365146965
116.899462553
115.384631674
113.818889186
112.200266048
110.5265309
108.795084293
107.00288396
105.146329565
103.221103248
101.221959584
99.1424336762
96.9744502485
94.7078872292
92.3297497839
89.8232000668
87.1661582253
84.3301990665
81.2828619121
77.987412626
74.4190572489
154.92637251
154.563161488
154.163367626
153.794521016
153.457205416
153.149607438
152.864905495
152.594880094
152.333004393
152.074442794
151.815604647
151.553850249
151.287244542
151.014349893
150.734066552
150.445511224
150.147947095
149.840698688
149.52311259
149.194561385
148.854411239
148.502015685
148.136713067
147.757825342
147.364658928
146.956505636
146.532643296
146.092336425
145.634837523
145.15938936
144.66522394
144.15155877
143.617599841
143.062541888
142.485570586
141.885861842
141.26258207
140.614888544
139.941929719
139.242845632
138.516768323
137.762822207
136.980124391
136.167784915
135.324906869
134.450586362
133.543912246
132.603965553
131.62981868
130.620534225
129.575163287
128.49274326
127.372294964
126.212818913
125.013290433
123.772653355
122.48981202
121.163621341
119.792874671
118.376288081
116.912480162
115.399951891
113.837048487
112.221905023
110.552415982
108.826182534
107.040428735
105.19190019
103.276739765
101.29033122
99.2271048021
97.0803019143
94.841650306
92.5010374668
90.0462570107
87.4630157015
84.7362482824
81.8558099973
78.8250757817
75.6807106062
154.592158076
154.360498264
154.059152837
153.748246435
153.443579593
153.15188572
152.873378298
152.604754247
152.342159541
152.082111796
151.821680986
151.558514132
151.290769983
151.01701351
150.736109499
150.447129135
150.149280891
149.841848296
149.524160552
149.195563241
148.855404325
148.503024921
148.137754967
147.758911546
147.365798153
146.957704806
146.533908711
146.093674784
145.636255577
145.160891011
144.666808627
144.153223263
143.619341769
143.064361175
142.487468408
141.887840863
141.264646077
140.617042318
139.944179115
139.245197755
138.519231739
137.765407219
136.982843402
136.170652867
135.327941775
134.453809893
133.547350374
132.607650123
131.633788617
130.624836863
129.579856205
128.497896549
127.377994012
126.219167833
125.020416274
123.780711296
122.498991774
121.17415485
119.805044136
118.390432026
116.929013653
115.419384226
113.860001271
112.249174183
110.585009693
108.865364708
107.087790254
105.249461983
103.347096249
101.376851955
99.3342209787
97.2139202239
95.009811159
92.7149268629
90.3217739318
87.8232403276
85.2149976349
82.5013864312
79.7038937763
76.8733250517
154.388637638
154.212785552
153.971597234
153.704282524
153.427183317
153.150757478
152.879395566
152.613252835
152.350731184
152.089677066
151.827895798
151.563405374
151.294524896
151.019866308
150.738285248
150.448820745
150.150640485
149.842990333
149.525170794
149.196501596
148.856311744
148.503928897
148.138673653
147.759856708
147.366777319
146.958722786
146.534968156
146.094776261
145.637398212
145.162073525
144.668030864
144.154488718
143.620655223
143.065728455
142.488896251
141.889334791
141.266211554
140.618685523
139.945907216
139.247019195
138.521156687
137.767447983
136.985014872
136.172973069
135.330432568
134.456497938
133.550268521
132.610837623
131.637292733
130.628714933
129.584177783
128.502746053
127.383473993
126.225402938
125.027558059
123.788944118
122.508540068
121.185292379
119.818107924
118.405850023
116.947309667
115.441180876
113.886077524
112.280485655
110.622737982
108.910984672
107.143155029
105.316915072
103.429623779
101.478293052
99.4595626165
97.3697144575
95.2047738033
92.9607879563
90.6344609235
88.2244396478
85.7338227971
83.1748909322
80.5749130499
77.9814189722
154.265416268
154.109738082
153.903344728
153.666705781
153.411225495
153.148056932
152.883662884
152.620405941
152.358423753
152.09672849
151.833835794
151.568157569
151.298205818
151.022667156
150.740407642
150.450445938
150.151917139
149.844035529
149.52607041
149.197316244
148.857083677
148.504686775
148.139436522
147.760637024
147.367583212
146.959559638
146.53583986
146.095686181
145.638349663
145.163070534
144.669078173
144.155590794
143.621816048
143.066950787
142.490180711
141.89068368
141.267629245
140.620178224
139.947482709
139.248687136
138.522928745
137.76933822
136.987040279
136.175154214
135.332794366
134.459070519
133.553088212
132.613948892
131.640749543
130.632582634
129.588535877
128.507691305
127.389124209
126.23190159
125.035080003
123.797702677
122.518795793
121.197363478
119.832380445
118.422782757
116.967468993
115.465280398
113.914989619
112.31528479
110.664754196
108.961869163
107.204966436
105.392233737
103.52170366
101.591265173
99.5987093466
97.5418387598
95.4186906525
93.2279600822
90.9697643475
88.6469468874
86.2672070624
83.8464058739
81.4118218073
79.0033122052
154.191249589
154.041043825
153.854079532
153.637782134
153.397955762
153.145137188
152.886622412
152.626054039
152.364776422
152.10270882
151.838964549
151.57231032
151.301445445
151.025138406
150.742276142
150.451866598
150.153020259
149.844923882
149.526821414
149.197985052
148.857708933
148.50529475
148.140044736
147.761257042
147.368222706
146.960223843
146.536532591
146.096410514
145.639108313
145.163865774
144.669911798
144.156464375
143.622730835
143.067908849
142.491187264
141.891746185
141.268754712
140.621373684
139.948756731
139.250050124
138.524393355
137.770919828
136.988757532
136.177029703
135.334855463
134.461350397
133.555627038
132.61679527
131.643962846
130.636235272
129.59271563
128.512504683
127.394700552
126.238398034
125.042687524
123.806653491
122.529372433
121.209910277
119.847319179
118.440632715
116.988860691
115.49098588
113.94594957
112.352655871
110.709961663
109.016673367
107.271548208
105.473304187
103.620645846
101.712317184
99.7471999179
97.7244861125
95.6439697644
93.506524265
91.3148591648
89.0746579239
86.7961849745
84.4963801211
82.2003465737
79.9405481385
154.148907446
153.999163489
153.822435722
153.618395302
153.388629993
153.142822829
152.888502826
152.629974099
152.369319252
152.107065103
151.842749921
151.575405236
151.303877101
151.027002544
150.743689846
150.452942674
150.153855466
149.845596536
149.527386139
149.198485531
148.858174903
148.505746277
148.140495267
147.761715515
147.368695122
146.960714369
146.537044316
146.096945899
145.639669533
145.164454913
144.670531041
144.157116384
143.623419289
143.068638361
142.491962268
141.892569948
141.269632805
140.622313781
139.949768117
139.251144007
138.52558331
137.772222303
136.990192462
136.178621262
135.336632977
134.463349475
133.557890954
132.619376594
131.646925138
130.639655458
129.596687148
128.517141063
127.400139737
126.244807665
125.050271428
123.815659651
122.540102672
121.222731852
119.862678564
118.459072435
117.011038338
115.5177123
113.978215796
112.391669473
110.757203025
109.073959595
107.341112062
105.557893984
103.723650565
101.837921546
99.9005736715
97.9120078973
95.8734762404
93.78755352
91.6588141547
89.4947448796
87.3068695881
85.1119697723
82.9325097663
80.7950622258
154.129594155
153.979364496
153.807029184
153.608724378
153.383860482
153.14157961
152.889435029
152.632002368
152.371709619
152.109385512
151.844787608
151.577088205
151.30521359
151.028039632
150.744487804
150.453560686
150.154344767
149.845998318
149.527731371
149.198797151
148.85846893
148.506033614
148.140783321
147.762009327
147.368998214
146.961029346
146.537373346
146.097290876
145.640032341
145.164837585
144.670935885
144.157546091
143.623876875
143.069127073
142.492486042
141.893134454
141.270244517
140.622980455
139.950499169
139.251950921
138.526480078
137.773225934
136.9913236
136.179904945
135.338099575
134.465035834
133.559841781
132.621646142
131.64957926
130.642774101
129.600367355
128.521500616
127.405321596
126.250985383
125.057655781
123.824506693
122.550723507
121.235504514
119.878062672
118.477627857
117.033447272
115.544788737
114.010970095
112.431336734
110.805274639
109.132251023
107.411837022
105.64375158
103.82792981
101.96462484
100.054558373
98.0991399694
96.1007796662
94.0633211595
91.9926147607
89.8972182889
87.7891519912
85.684555784
83.6035356538
81.5683697312
154.129594576
153.979378377
153.807054039
153.608758554
153.383903273
153.141630235
152.889492626
152.632066156
152.371778943
152.109459833
151.844866494
151.577171315
151.305300636
151.028130388
150.744582105
150.453658417
150.154445851
149.846102737
149.527839199
149.198908454
148.858583836
148.50615233
148.140906164
147.76213676
147.369130879
146.961168104
146.537519104
146.097444916
145.640196174
145.165012982
144.671124904
144.157751122
143.624100751
143.069373258
142.492758892
141.893439192
141.270587474
140.623369385
139.950943569
139.252462394
138.527072762
137.773917018
136.992133951
136.180859884
135.339229839
134.466378739
133.561442622
132.623559876
131.651872554
130.645527833
129.603679651
128.525490527
127.410133572
126.25679472
125.064675261
123.832994628
122.560993446
121.247936965
119.893119239
118.495868644
117.055554879
115.571595249
114.043460207
112.470703563
110.852986748
109.190088852
107.481952562
105.728740651
103.930914414
102.089344788
100.205467707
98.2814983815
96.320721015
94.3278687855
92.3095966838
90.2750170048
88.2362130092
86.2085898333
84.2104716381
82.2613065008
154.148908829
153.999205578
153.822510969
153.61849866
153.388759313
153.142975575
152.888676352
152.630166082
152.369527746
152.107288497
151.842986911
151.575654782
151.304138371
151.027274887
150.743972772
150.453235862
150.154158691
149.845909798
149.527709492
149.198819234
148.858519359
148.506102103
148.140863405
147.762097324
147.369092469
146.961129688
146.537480608
146.097406854
145.64015957
145.164979277
144.67109593
144.157729134
143.624088505
143.069374107
142.49277694
141.893479463
141.270656152
140.623474079
139.951093608
139.252669187
138.527350225
137.774282078
136.992607172
136.181466243
135.339999672
134.467348885
133.562657791
132.625074307
131.653752035
130.64785216
129.606545608
128.529015489
127.414459885
126.262095043
125.071159018
123.840915769
122.570659772
121.259721372
119.907473269
118.513338548
117.076800781
115.597417427
114.074836198
112.50881204
110.899231898
109.246152584
107.549848702
105.810874179
104.030145014
102.209051031
100.349606057
98.4546471857
96.528093783
94.5752739617
92.6033150064
90.6215660831
88.6419794616
86.6793379162
84.7507977973
82.8741996108
154.191252308
154.041115442
153.854207017
153.637956705
153.39817362
153.145393933
152.886913535
152.626375632
152.365125225
152.103082154
151.839360258
151.572726693
151.301881132
151.025592357
150.742747577
150.452355031
150.153525293
149.845445471
149.52735965
149.198540364
148.858282004
148.50588662
148.140656963
147.761891866
147.368883204
146.960914016
146.537257411
146.097175998
145.639921621
145.16473533
144.670847535
144.157478301
143.623837764
143.069126601
142.492536543
141.893250947
141.270445387
140.623288303
139.950941733
139.252562131
138.527301319
137.77430756
136.992726799
136.181704036
135.340384822
134.467916842
133.563451576
132.626146108
131.655165148
130.649683348
129.608887944
128.531981807
127.418186968
126.266748726
125.07694032
123.848068217
122.579478188
121.270562441
119.920768253
118.529608508
117.096674464
115.621651389
114.104338202
112.544672376
110.942760831
109.298918326
107.613717144
105.888051216
104.123219358
102.321033114
100.483955403
98.6152775589
96.7193420825
94.801816724
92.8700191283
90.9332731044
89.003252918
87.0942517428
85.2228572519
83.4064544085
154.265420994
154.109841681
153.903527839
153.666955268
153.411535579
153.148421121
152.884074676
152.620859788
152.358915068
152.097253542
151.834391599
151.568741773
151.298816576
151.02330302
150.741067509
150.451129155
150.152623119
149.844764347
149.526822278
149.198091665
148.857883576
148.505512589
148.140290396
147.761522038
147.368503592
146.960520895
146.536848906
146.096751454
145.639481206
145.164279801
144.670378117
144.156996664
143.623346093
143.068627702
142.492033965
141.892749152
141.269949833
140.622805687
139.950480314
139.252132093
138.526915129
137.773980344
136.992476979
136.181554051
135.340361978
134.468054317
133.563789641
132.626733613
131.656061338
130.650960061
129.610632274
128.534299313
127.42120559
126.270623507
125.081859046
123.854258146
122.587214106
121.280176321
119.932660811
118.544262903
117.114672514
115.643692667
114.131262015
112.577482375
110.982652604
109.347310237
107.672283111
105.958753254
104.208336327
102.423180386
100.606087856
98.760665263
96.8915059977
95.0044120342
93.1066613844
91.2073246626
89.3176366417
87.4514432034
85.625201241
83.8568503679
154.388645432
154.212925247
153.971841596
153.704613131
153.427591898
153.151235113
152.879933604
152.613844039
152.351369659
152.090358065
151.82861556
151.56416096
151.295314
151.020687032
150.739135976
150.449700488
150.151548187
149.843927497
149.526137484
149.197498081
148.857338986
148.504988563
148.139768323
147.760990066
147.367954425
146.959950241
146.536254457
146.096132202
145.638837024
145.163611203
144.669686112
144.156282601
143.622611682
143.06787519
142.491266333
141.891970189
141.269164437
140.622019991
139.949701839
139.251369996
138.526180587
137.773287138
136.991841876
136.180997427
135.339908607
134.467734304
133.563639527
132.626797729
131.656393443
130.651625316
129.611709643
128.535884478
127.423414471
126.273596491
125.085766108
123.859304945
122.593649135
121.288299436
119.942833424
118.556919996
117.130336668
115.662990347
114.154942312
112.606438188
111.017943831
109.390188227
107.724215128
106.021444872
104.283748448
102.513535039
100.713855007
98.8885196557
97.0422407742
95.1807959248
93.3112333862
91.4421442277
89.5840739993
87.7502400501
85.9570390556
84.2236147761
154.592170122
154.36067942
154.059465451
153.748665676
153.444093986
153.152483473
152.874048435
152.605487836
152.342949446
152.082952354
151.822567793
151.559443846
151.29174011
151.01802203
150.737154752
150.448210916
150.150396516
149.842999489
149.525347531
149.196786573
148.856665047
148.504324791
148.139096804
147.760299378
147.367237484
146.959202801
146.535474076
146.095317604
145.637987767
145.162727537
144.668768909
144.155333384
143.621632512
143.066868421
142.490234539
141.890916259
141.268091975
140.62093382
139.948608136
139.250276493
138.525096762
137.772224602
136.990815058
136.180024039
135.339010259
134.46693726
133.562975651
132.626305666
131.656120133
130.651627727
129.612056892
128.536660388
127.424720686
126.275556185
125.088528095
123.863048206
122.598589687
121.294697815
119.951003368
118.567238652
117.143256485
115.679052773
114.174793335
112.630845557
111.047815555
109.426591695
107.768395538
106.074840822
104.348001264
102.590486377
100.805525324
98.99705664
97.1698225887
95.329471325
93.4826805275
91.6373389432
89.8029295886
87.991511391
86.2187358528
84.5045313333
154.926389388
154.563388361
154.163751596
153.795029861
153.457823742
153.150320085
152.865699037
152.595743933
152.333930221
152.075424142
151.816636608
151.554929325
151.288368544
151.015517726
150.735278885
150.446773559
150.149249438
149.842035202
149.524489469
149.195982044
148.855878378
148.50353234
148.138283236
147.759454954
147.366356242
146.958281286
146.534510173
146.094309953
145.636935404
145.161629644
144.667624895
144.154143189
143.620396791
143.065588904
142.488913701
141.889557396
141.266699074
140.619511314
139.947161382
139.2488121
138.523623009
137.770751598
136.989354862
136.178591348
135.337622998
134.465617259
133.561749512
132.625205872
131.655185904
130.650906352
129.611605583
128.536548371
127.425031699
126.276391459
125.090010316
123.865326905
122.601844976
121.299146346
119.956905534
118.574906887
117.153064854
115.691447939
114.190306876
112.65010753
111.071568948
109.455707278
107.803885891
106.117871322
104.399895096
102.652719544
100.879705158
99.0848734357
97.2729584114
95.4494429699
93.620577978
91.793388034
89.9758494971
88.1779011944
86.4124421963
84.697182243
155.476380708
154.822609543
154.270602367
153.833417814
153.462439696
153.141204789
152.853100763
152.583812856
152.324023378
152.067729778
151.81088436
151.55071663
151.285302419
151.013266875
150.733585358
150.44544524
150.148143685
149.841057609
149.523575831
149.195089652
148.854979379
148.502608852
148.137323915
147.758452695
147.365306786
146.957182319
146.533360903
146.093110435
145.635686293
145.160332037
144.666279702
144.152749776
143.618955294
143.064099092
142.487375821
141.887972535
141.265069035
140.617838876
139.945450231
139.247066876
138.52184942
137.768956802
136.987547949
136.176783569
135.335828121
134.463852034
133.560034198
132.623564739
131.653648703
130.64950965
129.61039382
128.535575507
127.424363135
126.276106145
125.090202929
123.866111539
122.603359322
121.30155628
119.960410469
118.579746084
117.159524783
115.699870729
114.20109977
112.663753148
111.088636127
109.476861905
107.829900517
106.149631868
104.438406106
102.699100965
100.935178206
99.1507274484
97.350487081
95.5398278039
93.7246508143
91.9111340635
90.1054902043
88.3144784059
86.5443543631
84.8008546808
156.471876138
155.114245448
154.323839407
153.824588589
153.434649189
153.112048136
152.828887583
152.565497294
152.310823375
152.058500717
151.804556057
151.546416411
151.282366767
151.011215194
150.732078532
150.444220915
150.147084528
149.840070149
149.522602574
149.19409753
148.85394985
148.50153176
148.136193757
147.757266387
147.364061715
146.955872594
146.531982865
146.091661919
145.634165451
145.158737279
144.664610457
144.151008658
143.617143277
143.062217361
142.48542566
141.885955164
141.262985927
140.61569188
139.943241697
139.244799821
138.519527715
137.76658534
136.985132829
136.174332328
135.333350032
134.461358486
133.557539204
132.621085601
131.651206273
130.647128998
129.608105289
128.533415874
127.422377036
126.274348022
125.088739538
123.865022132
122.602739108
121.301519707
119.961094877
118.581315971
117.162176684
115.703838678
114.206661336
112.671235991
111.098424976
109.489405504
107.845716916
106.169312734
104.462634231
102.728645285
100.970890227
99.1935337224
97.4013773553
95.5998322239
93.7947159169
91.9918246669
90.1964291374
88.4127807176
86.6353879478
84.8271191389
158.265172249
155.337353311
154.224504771
153.698527502
153.332918524
153.040100724
152.78042293
152.533556028
152.290118568
152.04531173
151.796313856
151.541357007
151.279288047
151.009308054
150.73081507
150.443343231
150.146351037
149.839356108
149.521845002
149.193264191
148.853025991
148.500512418
148.135078918
147.756058042
147.362763318
146.954495623
146.530532951
146.090141169
145.632575128
145.157078106
144.662882318
144.149209735
143.615272743
143.060274694
142.483410527
141.883867511
141.260825975
140.613460116
139.940938905
139.242427146
138.517086763
137.764078294
136.982562553
136.171702477
135.330665179
134.458624294
133.554762621
132.618275101
131.648372266
130.644284217
129.605265292
128.530599586
127.419607343
126.27165231
125.086150321
123.862579276
122.600490765
121.299523769
119.959420861
118.580047248
117.161413115
115.703699689
114.20728944
112.672800753
111.101127395
109.49348345
107.851456546
106.177064336
104.472782957
102.741635542
100.987237187
99.213837234
97.4263411753
95.6303038774
93.8319828763
92.0381523626
90.2557562497
88.4911406725
86.7273912502
84.8231167157
64.6361267599
61.1295786789
58.7682109174
56.8420830358
55.1917851159
53.7446378681
52.458596419
51.3070711411
50.2712787815
49.3365878128
48.4909470377
47.7241456199
47.0274094262
46.3931418657
45.814732867
45.2864076946
44.8031035578
44.3603672309
43.9542692875
43.5813318149
43.2384677336
42.922929761
42.6322671267
42.3642882551
42.1170283923
41.888721516
41.6777759242
41.482753398
41.3023518579
41.1353907039
40.9807976256
40.8375964881
40.7048964036
40.5818826067
40.467809085
40.3619919599
40.2638031281
40.1726641009
40.0880404917
40.0094391306
39.9364142778
39.8685939301
39.8056163516
39.7470944007
39.6926541144
39.6419814176
39.5948015862
39.5508666294
39.5099134883
39.4717088492
39.4360440074
39.4027423657
39.3715955097
39.3424273883
39.3150822092
39.2894163042
39.2652943917
39.242589664
39.2211853804
39.200975174
39.1818614469
39.1637530103
39.14656408
39.1302150727
39.1146338507
39.0997554911
39.0855198817
39.0718699687
39.0587529994
39.0461220388
39.0339356218
39.0221558235
39.010746968
38.9996763069
38.9889150221
38.978438452
38.9682244988
38.9582516453
38.9485001952
38.9389537003
38.9295987657
38.9204241824
38.9114199446
38.9025778979
38.8938921828
38.8853591453
38.8769768282
38.8687449436
38.8606650122
38.8527405997
38.8449771198
38.8373810486
38.829961743
38.8227308983
38.815702247
38.8088915322
38.8023174697
38.7960028609
38.7899737836
38.7842593831
38.7788931679
38.7739140881
38.7693654602
38.7652948357
38.7617558861
38.758810391
38.7565261655
38.7549779855
38.7542503543
38.7544378684
38.7556451481
38.7579877478
38.7615957579
38.7666140105
38.7732017075
38.7815360685
38.7918136092
38.8042516979
38.8190899861
38.8365938902
38.8570547387
38.8807925843
38.9081587934
38.9395380763
38.9753507062
39.0160524977
39.0621387891
39.1141440335
39.1726403522
39.2382394084
39.3115876125
39.3933593669
39.4842555077
39.5849806205
39.6962061386
39.8185658252
39.9525970317
40.0986516665
40.2567805698
40.4265516745
40.6067734718
40.7950580328
40.9871633906
41.1759477228
41.3497940563
41.4901922338
41.5681370972
41.5388570837
41.3344617683
40.855300359
39.9657265499
38.5017537658
36.3074510536
33.297478446
29.5009050493
25.0364996994
20.0671204651
14.6585369852
8.61784373722
2.40079853522
67.8542939848
63.8221023771
61.1393450952
59.0163455767
57.2337318879
55.6913704503
54.3330849398
53.1247807661
52.0431283257
51.0705346867
50.1929396547
49.3987266432
48.6781157713
48.0227788748
47.4255661489
46.8802994546
46.3816111522
45.9248146475
45.5057996735
45.1209464723
44.7670549137
44.4412866399
44.141116043
43.8642891297
43.6087882597
43.3728019976
43.1546991517
42.9530068304
42.7663922957
42.593647295
42.4336743999
42.2854743041
42.1481346405
42.0208206552
41.902767766
41.7932746963
41.6916970195
41.5974415172
41.5099603375
41.4287454274
41.3533214994
41.2832408463
41.2180753647
41.1574761266
41.1011507345
41.0487573514
40.9999792981
40.954523804
40.9121551055
40.8726424533
40.8357645845
40.8013118069
40.7690948344
40.7389411319
40.710690161
40.6841918972
40.6593049336
40.6358975571
40.6138480139
40.5930451022
40.573387066
40.5547788353
40.5371308974
40.520360817
40.5043929849
40.4891597651
40.4745984017
40.460649006
40.4472570897
40.4343738872
40.4219551546
40.4099618621
40.3983560585
40.3871034676
40.3761737486
40.3655399546
40.3551792346
40.3450681329
40.335185532
40.325514483
40.316038754
40.3067475361
40.2976285543
40.2886720994
40.2798735671
40.2712231575
40.2627230314
40.2543684643
40.2461587314
40.238100727
40.2301905457
40.2224411731
40.2148544673
40.2074423193
40.2002164814
40.1931893536
40.1863785309
40.1798027708
40.1734865426
40.1674540245
40.1617369589
40.1563687741
40.1513897598
40.146841026
40.1427726228
40.1392390475
40.1363025711
40.1340284503
40.1324971778
40.1317898019
40.1320050626
40.1332440912
40.1356294055
40.1392889461
40.1443661581
40.1510277385
40.1594460014
40.1698231713
40.1823742284
40.1973407377
40.2149901054
40.235610054
40.2595189179
40.2870704847
40.3186395087
40.3546404811
40.3955214326
40.4417578591
40.4938658871
40.5523830723
40.6178828193
40.6909494517
40.7721751024
40.8621423336
40.9613906814
41.0703754021
41.1894239287
41.3186250045
41.4577036159
41.6058143275
41.7612343491
41.9209040686
42.0797371919
42.2295481082
42.3574938688
42.4437390437
42.4581442493
42.3555903816
42.0694847667
41.503686333
40.5307785404
38.9979773963
36.7570022991
33.7162533066
29.8932138073
25.3920100349
20.3629355694
14.9056159389
8.87326864072
2.54190080437
70.0906474601
66.1663742552
63.3253202296
61.06716909
59.1812939065
57.5598050676
56.1397139855
54.882068118
53.7601703076
52.754081838
51.8480869913
51.0293840541
50.2873345324
49.61298159
48.9987106689
48.4379967357
47.9252105395
47.4554662021
47.024499756
46.6285716065
46.2643869207
45.9290311804
45.61991646
45.33473671
45.0714299171
44.8281461596
44.6032205325
44.3951502607
44.2025755847
44.0242632621
43.8590921847
43.7060404985
43.5641746274
43.4326398661
43.3106526274
43.1974934762
43.092500703
42.9950647938
42.9046228964
42.8206551955
42.7426829355
42.6702620467
42.6029500058
42.5403608003
42.4821257529
42.4279329041
42.3774931324
42.3305452749
42.2868182966
42.2460612164
42.208043592
42.1725517181
42.1393858325
42.1083630673
42.0793150159
42.0520857077
42.0265288115
42.0025081672
41.9798979129
41.9585825521
41.938455975
41.9194191774
41.9013791293
41.8842505942
41.8679551579
41.8524218785
41.837585331
41.8233834204
41.809759562
41.7966632574
41.7840482189
41.7718734695
41.7600995952
41.7486909264
41.7376157012
41.7268451309
41.7163551025
41.7061210179
41.6961203114
41.6863355891
41.6767492781
41.6673490604
41.6581221394
41.6490568862
41.6401483675
41.631385825
41.6227692195
41.6142937826
41.6059559638
41.5977620989
41.5897072334
41.5818013323
41.5740458536
41.5664496478
41.5590224165
41.5517749008
41.5447219891
41.5378792306
41.531268411
41.524910545
41.5188328067
41.5130646218
41.5076425979
41.5026027997
41.497988488
41.4938486372
41.490239444
41.4872173277
41.4848546331
41.4832236933
41.4824134528
41.4825128781
41.4836311896
41.4858848361
41.4893995403
41.4943252737
41.5008169207
41.5090548667
41.5192306908
41.5315607782
41.5462835643
41.5636563739
41.5839624967
41.607516201
41.6346514522
41.6657325055
41.7011545962
41.7413334178
41.7867175547
41.8377684906
41.8949704883
41.9588086644
42.0297576605
42.1082592494
42.1946953099
42.2893267732
42.3922389604
42.5032312971
42.6216652554
42.746239076
42.8746641566
43.0031791597
43.1258272304
43.233394062
43.3118653003
43.3401965681
43.2873070634
43.1081420488
42.7381319121
42.0842746133
41.0278271759
39.4278484979
37.146306472
34.0834390861
30.2450812902
25.719642959
20.6418348589
15.1335109203
9.10232919939
2.66916864487
71.9134710386
68.1990288426
65.3173775723
62.9835737415
61.0258549338
59.3436348739
57.8737516103
56.5752428716
55.4194171952
54.384725727
53.4542245536
52.6141940307