/*--------------------------------*- C++ -*----------------------------------*\
| =========                 |                                                 |
| \\      /  F ield         | OpenFOAM: The Open Source CFD Toolbox           |
|  \\    /   O peration     | Version:  2106                                  |
|   \\  /    A nd           | Website:  www.openfoam.com                      |
|    \\/     M anipulation  |                                                 |
\*---------------------------------------------------------------------------*/
FoamFile
{
    version     2.0;
    format      ascii;
    arch        "LSB;label=32;scalar=64";
    class       volVectorField;
    location    "0.03";
    object      U;
}
// * * * * * * * * * * * * * * * * * * * * * * * * * * * * * * * * * * * * * //

dimensions      [0 1 -1 0 0 0 0];

internalField   nonuniform List<vector> 
11200
(
(0.662443589103 0.150585478893 0)
(0.558905325622 0.103252731329 0)
(0.383850244585 0.0513408070057 0)
(0.283905172245 0.0248302952544 0)
(0.232545394709 0.0123353509769 0)
(0.202875700262 0.00649264802677 0)
(0.184852652226 0.00362447516519 0)
(0.173785549645 0.00209800151135 0)
(0.16698935763 0.00122275817057 0)
(0.162886082227 0.000697683179677 0)
(0.16050117773 0.000379676918568 0)
(0.159198954658 0.000191194508759 0)
(0.158557103318 8.42831474648e-05 0)
(0.158297276098 2.70032143748e-05 0)
(0.158238576331 7.21171646793e-07 0)
(0.158279103259 2.64501384673e-06 0)
(0.158360885631 1.15699185279e-05 0)
(0.15844673208 1.97132392605e-05 0)
(0.158521677622 2.58740798048e-05 0)
(0.158581494429 2.98638403327e-05 0)
(0.158626428702 3.18827238257e-05 0)
(0.158658104035 3.28460403386e-05 0)
(0.158679901266 3.51274634788e-05 0)
(0.158695133755 3.76148600948e-05 0)
(0.158705453226 3.98389934001e-05 0)
(0.158712255422 4.18449603407e-05 0)
(0.158716673636 4.37650760777e-05 0)
(0.158719538838 4.57422639752e-05 0)
(0.158721395713 4.79025622773e-05 0)
(0.15872258433 5.01535770597e-05 0)
(0.158723321538 5.23887920898e-05 0)
(0.158723763937 5.45805646578e-05 0)
(0.158724035797 5.67514324816e-05 0)
(0.158724206235 5.89227955561e-05 0)
(0.158724311222 6.11035398485e-05 0)
(0.158724373491 6.32977075749e-05 0)
(0.158724407172 6.55068217963e-05 0)
(0.158724421531 6.77305675935e-05 0)
(0.1587244231 6.99677064651e-05 0)
(0.158724415962 7.22166095344e-05 0)
(0.158724402038 7.44754930002e-05 0)
(0.158724381575 7.67423495037e-05 0)
(0.158724353731 7.90150429175e-05 0)
(0.158724317308 8.12917918355e-05 0)
(0.158724270866 8.35711295099e-05 0)
(0.158724212002 8.58509974226e-05 0)
(0.158724136789 8.8128140329e-05 0)
(0.158724041728 9.03979612264e-05 0)
(0.158723926411 9.26558787427e-05 0)
(0.158723794382 9.48977388206e-05 0)
(0.158723653432 9.71197003523e-05 0)
(0.158723515403 9.93184989986e-05 0)
(0.158723395482 0.000101491360662 0)
(0.1587233124 0.000103635707045 0)
(0.158723290456 0.000105749558209 0)
(0.158723362737 0.000107831603186 0)
(0.158723575425 0.000109879168456 0)
(0.158723995797 0.000111884481688 0)
(0.158724726855 0.000113830793063 0)
(0.158725923782 0.000115688204796 0)
(0.158727842862 0.000117391705935 0)
(0.158730938686 0.000118845274976 0)
(0.158735810148 0.000120090310634 0)
(0.15874329543 0.000121432731108 0)
(0.15875461725 0.00012348291843 0)
(0.158771740384 0.000126148519266 0)
(0.158797870784 0.000129106520001 0)
(0.158837923408 0.000132079546618 0)
(0.158899118477 0.000134983618791 0)
(0.158991730168 0.00013897552206 0)
(0.159134889512 0.000148401672082 0)
(0.159361612683 0.00016370005289 0)
(0.159719581127 0.000183921941047 0)
(0.160290764909 0.000208585002305 0)
(0.161246606715 0.000221623464169 0)
(0.162928984038 0.000127856436047 0)
(0.166112253205 -0.000449595813317 0)
(0.174814571491 -0.00291934480833 0)
(0.204377266762 -0.0141242195757 0)
(0.235207184247 -0.0652106713566 0)
(0.965397982932 0.289242728614 0)
(0.96199668572 0.252616685599 0)
(0.823848362481 0.15883984125 0)
(0.698951758089 0.0956076561228 0)
(0.61196016956 0.057600426714 0)
(0.552066783991 0.0352818600945 0)
(0.511481145252 0.0219585689709 0)
(0.484626947485 0.0137237809168 0)
(0.467221707156 0.00848376917942 0)
(0.456216708067 0.00510752090465 0)
(0.449492919378 0.00294455020693 0)
(0.445571161733 0.00158906133961 0)
(0.443425853401 0.000769904142095 0)
(0.442361312916 0.000299456284699 0)
(0.441922849037 5.03471744411e-05 0)
(0.441818567242 -5.70324620519e-05 0)
(0.441869041749 -9.24554541489e-05 0)
(0.441978999635 -9.33509632103e-05 0)
(0.442099153406 -7.99951872693e-05 0)
(0.442206448545 -6.28834940095e-05 0)
(0.442293209099 -4.68843464154e-05 0)
(0.442359845696 -3.34075118368e-05 0)
(0.442408833102 -2.13592932125e-05 0)
(0.4424430937 -1.15996126088e-05 0)
(0.442466595968 -4.1998899215e-06 0)
(0.442482534429 1.24107351895e-06 0)
(0.442493289143 5.13861810407e-06 0)
(0.442500616714 7.78227308125e-06 0)
(0.442505528235 9.34958810055e-06 0)
(0.442508630735 1.0340769689e-05 0)
(0.442510499277 1.1167453512e-05 0)
(0.442511619832 1.18514958591e-05 0)
(0.442512325359 1.24438963814e-05 0)
(0.442512783656 1.29939610724e-05 0)
(0.442513082656 1.35193473837e-05 0)
(0.442513279202 1.40305146371e-05 0)
(0.44251340747 1.45345846289e-05 0)
(0.442513487273 1.50352812036e-05 0)
(0.442513529856 1.55350761578e-05 0)
(0.442513540469 1.60358769343e-05 0)
(0.442513520645 1.65390937681e-05 0)
(0.442513470063 1.70460188022e-05 0)
(0.442513388227 1.75584613459e-05 0)
(0.442513275813 1.80792819638e-05 0)
(0.442513134617 1.86118778826e-05 0)
(0.442512966126 1.91588438899e-05 0)
(0.442512769128 1.97213024673e-05 0)
(0.442512541893 2.02967298194e-05 0)
(0.442512286176 2.08825988205e-05 0)
(0.442512007713 2.1477870043e-05 0)
(0.44251171674 2.20824387323e-05 0)
(0.442511429786 2.26970147835e-05 0)
(0.442511172433 2.33225980358e-05 0)
(0.442510983448 2.3959905624e-05 0)
(0.442510920508 2.46092558274e-05 0)
(0.442511067463 2.52695724425e-05 0)
(0.442511544449 2.59354733375e-05 0)
(0.442512527783 2.65934776093e-05 0)
(0.442514288678 2.72197066563e-05 0)
(0.442517231326 2.77827961418e-05 0)
(0.442522016367 2.82003697221e-05 0)
(0.44252991781 2.83584645253e-05 0)
(0.442542897816 2.82911690949e-05 0)
(0.44256378835 2.70813927071e-05 0)
(0.442595768422 2.26973157251e-05 0)
(0.442643698041 1.40847358579e-05 0)
(0.442716384623 -1.21872590308e-07 0)
(0.442827834106 -2.23500814148e-05 0)
(0.44300010549 -5.62668008254e-05 0)
(0.443268761361 -0.000106402323581 0)
(0.443690344767 -0.000177638792414 0)
(0.444358482381 -0.00028645427913 0)
(0.445428831747 -0.00047432634432 0)
(0.44717420618 -0.000815679293937 0)
(0.450106175335 -0.00148963120393 0)
(0.455171413557 -0.00298660571697 0)
(0.46424509806 -0.00665014879799 0)
(0.482439306677 -0.0162672578611 0)
(0.517266335658 -0.0445766262208 0)
(0.536266967224 -0.128846082519 0)
(1.02222567158 0.238414098009 0)
(1.08225628336 0.29571623499 0)
(1.03498382902 0.23890768792 0)
(0.955906647858 0.173151490507 0)
(0.882566482888 0.119543392047 0)
(0.823028151821 0.0805863418959 0)
(0.778207697184 0.0535588750944 0)
(0.746270507126 0.0350594022377 0)
(0.724404517483 0.0224665910998 0)
(0.709956809515 0.0139753623444 0)
(0.700766177141 0.00834865900174 0)
(0.695170019756 0.00471754889311 0)
(0.691940219048 0.00245741098369 0)
(0.690204475669 0.00111604855267 0)
(0.689367988655 0.000369500752157 0)
(0.689039986946 -1.16987288376e-05 0)
(0.688976590276 -0.000179713911324 0)
(0.689035517858 -0.000231196288565 0)
(0.689137413651 -0.000224889867775 0)
(0.689242848808 -0.000194742096691 0)
(0.689334699338 -0.000158552225913 0)
(0.689407870012 -0.000124674263195 0)
(0.689462851335 -9.68118507727e-05 0)
(0.6895024308 -7.51223133812e-05 0)
(0.689530136226 -5.88226383423e-05 0)
(0.689549060709 -4.68911935446e-05 0)
(0.689561666416 -3.83386627294e-05 0)
(0.689569843102 -3.23878938339e-05 0)
(0.689575247549 -2.85534722563e-05 0)
(0.689579094872 -2.63223016494e-05 0)
(0.689581706795 -2.52922421367e-05 0)
(0.689583318854 -2.50780080696e-05 0)
(0.689584347606 -2.53735607586e-05 0)
(0.689585018724 -2.59390218715e-05 0)
(0.689585452069 -2.66672724428e-05 0)
(0.689585733393 -2.74951208925e-05 0)
(0.689585914771 -2.83820631696e-05 0)
(0.689586026372 -2.93055331045e-05 0)
(0.689586085815 -3.02510202709e-05 0)
(0.68958610133 -3.12083337532e-05 0)
(0.689586075252 -3.21706827525e-05 0)
(0.689586007511 -3.31328632737e-05 0)
(0.689585898152 -3.40896692869e-05 0)
(0.689585748745 -3.50355475841e-05 0)
(0.689585562246 -3.59657605169e-05 0)
(0.689585341633 -3.68774687572e-05 0)
(0.689585085642 -3.7767252642e-05 0)
(0.689584792767 -3.86338633613e-05 0)
(0.689584467398 -3.94734468626e-05 0)
(0.689584118201 -4.028105924e-05 0)
(0.689583758479 -4.10529831225e-05 0)
(0.689583409468 -4.17861496767e-05 0)
(0.689583104611 -4.24782115652e-05 0)
(0.689582895793 -4.31287868628e-05 0)
(0.689582862126 -4.3741962174e-05 0)
(0.689583121892 -4.43317810974e-05 0)
(0.689583850556 -4.49341183202e-05 0)
(0.689585314377 -4.56326361722e-05 0)
(0.689587933749 -4.66042037649e-05 0)
(0.68959232871 -4.81581268982e-05 0)
(0.68959949932 -5.0936025584e-05 0)
(0.689611298253 -5.62070568547e-05 0)
(0.689629538066 -6.54302320297e-05 0)
(0.689656151038 -7.9815339536e-05 0)
(0.689696352261 -0.00010180038771 0)
(0.689759176457 -0.000134477047885 0)
(0.689857071994 -0.000182834806869 0)
(0.690009197553 -0.000255051639366 0)
(0.690246160354 -0.000364206038192 0)
(0.690617591868 -0.000531677997475 0)
(0.691202903252 -0.000794507131555 0)
(0.692125951299 -0.00121912676924 0)
(0.693593807491 -0.00192938928302 0)
(0.695961411457 -0.00315697480231 0)
(0.699832529925 -0.00537798047366 0)
(0.706183211284 -0.00963101938001 0)
(0.716510168375 -0.0182010234647 0)
(0.733557568192 -0.0361869791202 0)
(0.758003743678 -0.0755118851174 0)
(0.763737105575 -0.154302105931 0)
(1.02252662667 0.170746594599 0)
(1.10153845355 0.276048930756 0)
(1.11808533223 0.265553404687 0)
(1.09350888092 0.217871553268 0)
(1.05452403992 0.165033669689 0)
(1.01466885415 0.119262147062 0)
(0.98028450309 0.0834549113209 0)
(0.953413554553 0.0567960070617 0)
(0.933740375309 0.037549663664 0)
(0.920045788807 0.0240163810196 0)
(0.910938475085 0.0147616534781 0)
(0.905153241405 0.00863257490688 0)
(0.901657325682 0.00472462615359 0)
(0.899666367928 0.00234413149437 0)
(0.898617905405 0.000974277861885 0)
(0.898127400383 0.00024305383368 0)
(0.89794626134 -0.000104818453481 0)
(0.897924039391 -0.000237555546344 0)
(0.897972282706 -0.00025895276294 0)
(0.898042619627 -0.000230060131078 0)
(0.898111900577 -0.000184234051818 0)
(0.898170796926 -0.000137903260311 0)
(0.898217003463 -9.79950383667e-05 0)
(0.898251442819 -6.63000738087e-05 0)
(0.898276251167 -4.24081058601e-05 0)
(0.898293674237 -2.50304189617e-05 0)
(0.89830566566 -1.26962338139e-05 0)
(0.898313743648 -4.07498552817e-06 0)
(0.898318996209 1.90537793618e-06 0)
(0.898322216868 5.78700071095e-06 0)
(0.898324101915 8.04592009443e-06 0)
(0.898325272519 9.5208855287e-06 0)
(0.898326105168 1.06072600965e-05 0)
(0.898326727317 1.14775602156e-05 0)
(0.898327167151 1.22090554937e-05 0)
(0.898327480454 1.28489826562e-05 0)
(0.898327702978 1.34327179962e-05 0)
(0.898327855035 1.39822399336e-05 0)
(0.898327950518 1.45142479917e-05 0)
(0.898327995241 1.50407109143e-05 0)
(0.898327989527 1.55692617217e-05 0)
(0.89832793216 1.61058409561e-05 0)
(0.898327822365 1.66559619568e-05 0)
(0.898327660137 1.72247471671e-05 0)
(0.89832744587 1.78170090555e-05 0)
(0.89832718212 1.84405272091e-05 0)
(0.898326868826 1.91111834601e-05 0)
(0.898326507204 1.98208156296e-05 0)
(0.898326104675 2.05612847707e-05 0)
(0.898325670362 2.13308884313e-05 0)
(0.898325218121 2.21259649465e-05 0)
(0.898324771811 2.29391301867e-05 0)
(0.898324369489 2.37581311262e-05 0)
(0.898324069511 2.45629677206e-05 0)
(0.89832395846 2.53197402353e-05 0)
(0.898324159435 2.59693178721e-05 0)
(0.898324838456 2.64098558141e-05 0)
(0.898326217128 2.64774317764e-05 0)
(0.898328634555 2.59568105871e-05 0)
(0.898332504576 2.46392897062e-05 0)
(0.898338305225 2.17476533782e-05 0)
(0.898347589072 1.59939586758e-05 0)
(0.89836371137 5.39080083738e-06 0)
(0.898390803071 -1.27263393825e-05 0)
(0.898433772682 -4.13712486309e-05 0)
(0.898500336946 -8.67480034126e-05 0)
(0.898602974891 -0.000158984607739 0)
(0.898761438791 -0.000274020564422 0)
(0.899006713151 -0.000457405445289 0)
(0.899387328803 -0.000751004514748 0)
(0.899978813028 -0.00122566240274 0)
(0.90090084948 -0.0020025721187 0)
(0.902345842919 -0.00328833506664 0)
(0.904616514093 -0.00545921349788 0)
(0.908172732666 -0.00922161333117 0)
(0.913631672608 -0.0159303036756 0)
(0.92162012209 -0.0281336747865 0)
(0.932651848859 -0.0504317287562 0)
(0.944420082016 -0.0908116237983 0)
(0.939494967277 -0.155927330508 0)
(1.01288999715 0.118842146868 0)
(1.08832682172 0.231140491072 0)
(1.13784390964 0.251537091952 0)
(1.15510983988 0.226187279264 0)
(1.15189305979 0.184089875149 0)
(1.13864252897 0.140753052818 0)
(1.12251489486 0.102904613355 0)
(1.10749171083 0.0724794237321 0)
(1.09520005331 0.0492753607588 0)
(1.08593642388 0.0322895995996 0)
(1.07937716883 0.0203122871999 0)
(1.07497608357 0.0121802775756 0)
(1.07217048492 0.00687925409077 0)
(1.07047485927 0.00357786592229 0)
(1.06951072098 0.00162898862842 0)
(1.0690031625 0.000553010627372 0)
(1.06876506813 1.30762377867e-05 0)
(1.06867660291 -0.00021713828488 0)
(1.06866399117 -0.000282446651788 0)
(1.06868468701 -0.000268788419801 0)
(1.0687160446 -0.000224206376286 0)
(1.06874720738 -0.000173397054328 0)
(1.0687737725 -0.000127539892883 0)
(1.06879462966 -9.049990036e-05 0)
(1.06881018766 -6.26065680495e-05 0)
(1.06882136377 -4.26835670893e-05 0)
(1.06882912666 -2.90903121273e-05 0)
(1.06883434537 -2.02195470028e-05 0)
(1.06883778211 -1.46648237121e-05 0)
(1.06884010381 -1.12358443754e-05 0)
(1.06884189468 -9.00054699368e-06 0)
(1.06884338321 -7.39738289514e-06 0)
(1.06884451777 -6.23005985218e-06 0)
(1.06884532774 -5.49958728977e-06 0)
(1.06884588231 -5.14637342609e-06 0)
(1.06884626764 -5.00781305435e-06 0)
(1.06884653929 -4.98675207826e-06 0)
(1.06884672825 -5.03907003732e-06 0)
(1.06884685416 -5.13105813446e-06 0)
(1.06884692417 -5.23688444703e-06 0)
(1.06884693912 -5.34266452868e-06 0)
(1.06884689867 -5.43981971175e-06 0)
(1.06884680271 -5.52171802547e-06 0)
(1.06884665242 -5.58355839094e-06 0)
(1.06884645297 -5.62345414861e-06 0)
(1.06884621674 -5.64612566741e-06 0)
(1.06884592967 -5.66933489479e-06 0)
(1.06884557178 -5.67973380196e-06 0)
(1.06884515343 -5.66183853329e-06 0)
(1.06884468874 -5.61123838204e-06 0)
(1.06884419016 -5.52847712099e-06 0)
(1.06884367824 -5.41692431119e-06 0)
(1.06884318649 -5.28469123055e-06 0)
(1.06884276604 -5.14729680186e-06 0)
(1.06884249142 -5.03292190315e-06 0)
(1.06884246872 -4.99151152713e-06 0)
(1.0688428551 -5.10881342811e-06 0)
(1.06884392803 -5.53807076549e-06 0)
(1.06884623654 -6.64989644417e-06 0)
(1.06885019031 -9.50192643179e-06 0)
(1.06885629685 -1.49195424526e-05 0)
(1.0688660724 -2.25634846473e-05 0)
(1.06888116267 -3.450067439e-05 0)
(1.0689040277 -5.52033835179e-05 0)
(1.06893916055 -9.08837136769e-05 0)
(1.06899313719 -0.000150671027755 0)
(1.06907575225 -0.000248799637162 0)
(1.06920197013 -0.00040796754594 0)
(1.06939480659 -0.000664645400437 0)
(1.06968960464 -0.00107784298893 0)
(1.07014007752 -0.00174389765241 0)
(1.07082754983 -0.00282138980551 0)
(1.07187271843 -0.00457746220801 0)
(1.07344371089 -0.00747125943233 0)
(1.07574674471 -0.0122984511445 0)
(1.07893988357 -0.020434624427 0)
(1.08286891669 -0.0341574088933 0)
(1.08670626878 -0.056914348584 0)
(1.08729957501 -0.0932953383232 0)
(1.07353838141 -0.144987105293 0)
(1.00448174636 0.0812475732093 0)
(1.06922649381 0.180489941875 0)
(1.13097761174 0.215112733021 0)
(1.17413316106 0.207537262719 0)
(1.19935991409 0.178759969143 0)
(1.21135171449 0.143064309924 0)
(1.21521308123 0.108483540561 0)
(1.21488339384 0.0786874788973 0)
(1.21282479475 0.0548105254868 0)
(1.21037420022 0.0366801019131 0)
(1.20815923134 0.0235306842598 0)
(1.20640311798 0.0143974560789 0)
(1.20512273288 0.00832511493185 0)
(1.2042466103 0.00447162289003 0)
(1.20367868152 0.00215072711345 0)
(1.20332850235 0.000837698199262 0)
(1.20312349655 0.000154434092508 0)
(1.20301030867 -0.000157700332193 0)
(1.20295207037 -0.000266313438179 0)
(1.2029252102 -0.000273257543579 0)
(1.20291510748 -0.000236780962481 0)
(1.20291328377 -0.000187717871633 0)
(1.20291507905 -0.00014070038979 0)
(1.20291808376 -0.000101399484382 0)
(1.20292116742 -7.09690203459e-05 0)
(1.20292388362 -4.85457266947e-05 0)
(1.2029261323 -3.25456586892e-05 0)
(1.20292795164 -2.13070858645e-05 0)
(1.20292943409 -1.33976126557e-05 0)
(1.20293067383 -7.77524730589e-06 0)
(1.20293172351 -3.7901818214e-06 0)
(1.20293254997 -1.1439407909e-06 0)
(1.2029330836 4.93143461435e-07 0)
(1.20293335979 1.43030704285e-06 0)
(1.20293355985 2.03057551454e-06 0)
(1.20293378597 2.47724083146e-06 0)
(1.20293399293 2.83973826103e-06 0)
(1.2029341597 3.14557048671e-06 0)
(1.20293429175 3.42148949409e-06 0)
(1.2029343832 3.68321193999e-06 0)
(1.20293442322 3.945210209e-06 0)
(1.20293440637 4.21950582789e-06 0)
(1.20293433002 4.51451722161e-06 0)
(1.20293419116 4.8348117081e-06 0)
(1.20293398284 5.18071293124e-06 0)
(1.20293369184 5.54451506379e-06 0)
(1.20293333168 5.9026416104e-06 0)
(1.20293293037 6.26300507364e-06 0)
(1.20293248847 6.64929227699e-06 0)
(1.202932003 7.07478915796e-06 0)
(1.20293148347 7.53532971406e-06 0)
(1.20293095102 8.01908959723e-06 0)
(1.20293043959 8.50619782286e-06 0)
(1.20293000095 8.96282241735e-06 0)
(1.20292970973 9.33073965098e-06 0)
(1.20292966781 9.51246849062e-06 0)
(1.20292999805 9.35180986339e-06 0)
(1.20293075709 8.61171204622e-06 0)
(1.20293165469 6.92519662872e-06 0)
(1.20293286697 3.5461414008e-06 0)
(1.20293620004 -2.75088858406e-06 0)
(1.20294252947 -1.34762966627e-05 0)
(1.20295189515 -3.15911760008e-05 0)
(1.20296591076 -6.10472639665e-05 0)
(1.20298694589 -0.000108318557415 0)
(1.20301812149 -0.000183948892225 0)
(1.20306393694 -0.000304726466813 0)
(1.20313095949 -0.000497298768581 0)
(1.20322867275 -0.00080410044013 0)
(1.20337050007 -0.00129302944069 0)
(1.20357456874 -0.00207329441326 0)
(1.20386340038 -0.00332128417185 0)
(1.20425948932 -0.00532415012002 0)
(1.2047682825 -0.00855068676708 0)
(1.20533162794 -0.0137608486487 0)
(1.20570666667 -0.0221591461165 0)
(1.20520513582 -0.0355353594735 0)
(1.20237345575 -0.0562208538392 0)
(1.19414661258 -0.0866160100285 0)
(1.17332814866 -0.126539368222 0)
(0.998964626552 0.0542676195835 0)
(1.05308522118 0.132594391748 0)
(1.11614598845 0.168938661926 0)
(1.17263759323 0.171903246748 0)
(1.21713801209 0.154681992726 0)
(1.2491423945 0.128312535202 0)
(1.27076628818 0.100183719077 0)
(1.2847351509 0.0744303252337 0)
(1.29341046756 0.0528959820307 0)
(1.29857980107 0.0360216506145 0)
(1.30151191147 0.0234828265261 0)
(1.30306842798 0.0146016016029 0)
(1.3038139813 0.00859695235302 0)
(1.3041063834 0.00472668600662 0)
(1.30416400924 0.00235822637145 0)
(1.30411397912 0.000993332763277 0)
(1.30402608962 0.000264789018717 0)
(1.30393514738 -8.28938730168e-05 0)
(1.30385609728 -0.000217211363902 0)
(1.30379355192 -0.000241814090892 0)
(1.30374680439 -0.000217039762097 0)
(1.30371327782 -0.000175503736884 0)
(1.30369000129 -0.000133195111249 0)
(1.30367427468 -9.67605030171e-05 0)
(1.30366391309 -6.80131051343e-05 0)
(1.30365726665 -4.6531413807e-05 0)
(1.30365314483 -3.1071633482e-05 0)
(1.3036507004 -2.02617972718e-05 0)
(1.3036493193 -1.28902767651e-05 0)
(1.30364857069 -8.02398431996e-06 0)
(1.3036482025 -4.96737163053e-06 0)
(1.30364805983 -3.17546167816e-06 0)
(1.3036480556 -2.14857998757e-06 0)
(1.3036482336 -1.49243658432e-06 0)
(1.303648561 -9.88533760675e-07 0)
(1.30364889044 -6.75759534182e-07 0)
(1.30364915773 -4.87707257608e-07 0)
(1.3036493644 -3.34798748529e-07 0)
(1.3036495238 -1.88708769194e-07 0)
(1.30364963562 -4.25528167431e-08 0)
(1.30364969957 1.13958724044e-07 0)
(1.303649712 2.91920510581e-07 0)
(1.30364966815 5.00961243311e-07 0)
(1.30364956358 7.49659040751e-07 0)
(1.30364939396 1.04766991562e-06 0)
(1.30364915275 1.41059433568e-06 0)
(1.30364883915 1.86469052837e-06 0)
(1.30364847033 2.40863261763e-06 0)
(1.3036480603 3.01908981665e-06 0)
(1.30364760116 3.67473783211e-06 0)
(1.30364708612 4.36414691414e-06 0)
(1.30364652446 5.06966646526e-06 0)
(1.30364593459 5.76017935133e-06 0)
(1.30364534159 6.38250393855e-06 0)
(1.30364477671 6.8481162226e-06 0)
(1.30364427947 7.01537536262e-06 0)
(1.3036439128 6.66560498488e-06 0)
(1.30364381153 5.4792737198e-06 0)
(1.3036441579 3.10456276857e-06 0)
(1.30364474849 -4.81471588628e-07 0)
(1.30364558002 -6.08329325528e-06 0)
(1.30364685568 -1.68058940616e-05 0)
(1.30364852868 -3.51947914184e-05 0)
(1.30365061741 -6.54237509094e-05 0)
(1.30365285327 -0.000114375008305 0)
(1.30365434629 -0.000192932713231 0)
(1.30365325213 -0.000318192465681 0)
(1.30364604184 -0.000517079206877 0)
(1.30362614097 -0.000832116045962 0)
(1.30358145004 -0.00133059607704 0)
(1.30348966685 -0.00211914877908 0)
(1.30330948012 -0.0033665511434 0)
(1.30296353505 -0.00533925591581 0)
(1.30230496696 -0.00845431729976 0)
(1.30105374408 -0.013351484264 0)
(1.29867543265 -0.0209742608622 0)
(1.29417329666 -0.0326020225745 0)
(1.28588240667 -0.049696690804 0)
(1.2711090568 -0.0734154063549 0)
(1.24495167052 -0.103066566387 0)
(0.995735075994 0.0344922217333 0)
(1.04169928557 0.0898813623085 0)
(1.10180244285 0.11998953454 0)
(1.16382161914 0.126860434537 0)
(1.21984165319 0.117859179006 0)
(1.26576710428 0.100400960616 0)
(1.30101403438 0.0801332327552 0)
(1.32677502393 0.0606307922257 0)
(1.34482499039 0.0437585573674 0)
(1.35697085157 0.0302026194184 0)
(1.36481083719 0.0199337315234 0)
(1.36964514936 0.0125465470422 0)
(1.37246957988 0.0074856069048 0)
(1.37400940703 0.00418398836952 0)
(1.37476852932 0.00213896865889 0)
(1.3750807189 0.000944389191024 0)
(1.37515631313 0.000295327417662 0)
(1.37512040024 -2.32797658134e-05 0)
(1.37504272877 -0.000153829234802 0)
(1.37495898884 -0.0001859542653 0)
(1.37488483369 -0.000172296246728 0)
(1.37482537555 -0.000141725345359 0)
(1.37478056142 -0.000108720945263 0)
(1.37474822092 -7.95699838627e-05 0)
(1.37472564968 -5.62439733751e-05 0)
(1.37471033143 -3.8667479552e-05 0)
(1.37470019892 -2.5963710872e-05 0)
(1.37469366401 -1.70722879552e-05 0)
(1.37468955306 -1.10146403141e-05 0)
(1.37468703792 -6.96531178219e-06 0)
(1.3746855844 -4.27231814652e-06 0)
(1.37468485356 -2.46197737702e-06 0)
(1.37468458401 -1.19086619496e-06 0)
(1.37468455568 -2.69946299567e-07 0)
(1.37468458506 3.35295226286e-07 0)
(1.3746846493 7.25333552091e-07 0)
(1.37468480629 9.75090123714e-07 0)
(1.37468500559 1.16280906867e-06 0)
(1.37468518718 1.32689739954e-06 0)
(1.37468533174 1.49232728526e-06 0)
(1.37468543276 1.67400769518e-06 0)
(1.37468548537 1.88205271943e-06 0)
(1.374685486 2.12490772507e-06 0)
(1.37468543249 2.41079404638e-06 0)
(1.37468532416 2.74829993113e-06 0)
(1.37468516138 3.14689320482e-06 0)
(1.37468494501 3.61954261207e-06 0)
(1.37468466294 4.17376824953e-06 0)
(1.37468429925 4.79531955203e-06 0)
(1.37468386032 5.4654096607e-06 0)
(1.37468335865 6.17631185362e-06 0)
(1.37468279989 6.91603001625e-06 0)
(1.37468219039 7.66018112142e-06 0)
(1.37468153754 8.36439184944e-06 0)
(1.37468084755 8.95440438309e-06 0)
(1.37468012181 9.31304839293e-06 0)
(1.37467934713 9.26024066819e-06 0)
(1.37467848496 8.50957472255e-06 0)
(1.37467749283 6.57556885019e-06 0)
(1.3746761926 2.81141928117e-06 0)
(1.37467393672 -3.10922411995e-06 0)
(1.3746702032 -1.33927627363e-05 0)
(1.37466425246 -3.06556979872e-05 0)
(1.37465431123 -5.86771044052e-05 0)
(1.37463748378 -0.000103532544308 0)
(1.37460887263 -0.000174877641856 0)
(1.37456039211 -0.00028774187527 0)
(1.37447871157 -0.000465562808788 0)
(1.37434188215 -0.000744977989704 0)
(1.37411380458 -0.00118327038785 0)
(1.37373506614 -0.00186982393207 0)
(1.37310775512 -0.0029433676116 0)
(1.37207018208 -0.0046172347872 0)
(1.37035493213 -0.00721393320287 0)
(1.36752133555 -0.0112063977295 0)
(1.36284932072 -0.0172524988321 0)
(1.35518959772 -0.0261788014978 0)
(1.3428572797 -0.0388271663814 0)
(1.32352480789 -0.0556978981521 0)
(1.29360176428 -0.0761255715059 0)
(0.994008735517 0.0191406453347 0)
(1.03469924648 0.051873862226 0)
(1.09134796085 0.0713208655345 0)
(1.15498356257 0.0772954877584 0)
(1.21705341959 0.0733323695719 0)
(1.27141746448 0.0635799855284 0)
(1.31561182422 0.0514967826832 0)
(1.34956203399 0.0394462198734 0)
(1.37440433373 0.0287684653262 0)
(1.3917797103 0.0200386768659 0)
(1.4034050958 0.0133366117835 0)
(1.41083219477 0.0084631290961 0)
(1.41534073944 0.00509370151082 0)
(1.41791624759 0.00287733154038 0)
(1.41927456662 0.00149328322871 0)
(1.41990819541 0.000677539249309 0)
(1.42013841568 0.000229250277489 0)
(1.42016355767 5.3421206925e-06 0)
(1.42009853044 -8.94650044333e-05 0)
(1.42000522436 -0.000116008917866 0)
(1.41991384715 -0.000110171543495 0)
(1.41983657474 -9.17997566341e-05 0)
(1.41977631523 -7.09943951948e-05 0)
(1.41973174834 -5.22552443436e-05 0)
(1.41970003181 -3.70968314625e-05 0)
(1.41967813429 -2.55937203157e-05 0)
(1.41966340303 -1.72351110198e-05 0)
(1.41965372826 -1.13500894788e-05 0)
(1.41964752427 -7.30432270952e-06 0)
(1.41964365271 -4.56209625039e-06 0)
(1.41964133123 -2.71124782494e-06 0)
(1.41964002015 -1.4775192605e-06 0)
(1.41963933235 -6.88738748838e-07 0)
(1.41963902996 -2.12180114457e-07 0)
(1.41963899007 9.16004013124e-08 0)
(1.41963909275 3.76091553938e-07 0)
(1.41963925215 6.45048013544e-07 0)
(1.41963943828 8.81975077939e-07 0)
(1.41963962154 1.10401876028e-06 0)
(1.41963978315 1.33069400621e-06 0)
(1.41963991144 1.5755110943e-06 0)
(1.41963999837 1.84848897538e-06 0)
(1.41964003851 2.1576694955e-06 0)
(1.41964002842 2.50981700986e-06 0)
(1.41963996561 2.91041596828e-06 0)
(1.4196398476 3.36293537664e-06 0)
(1.41963967239 3.86831738734e-06 0)
(1.41963943494 4.42452534688e-06 0)
(1.41963912825 5.04081595903e-06 0)
(1.41963874974 5.72531936273e-06 0)
(1.41963829783 6.47109465696e-06 0)
(1.41963776837 7.26261094969e-06 0)
(1.41963715401 8.07307171161e-06 0)
(1.41963643993 8.85727474654e-06 0)
(1.41963559871 9.54236534998e-06 0)
(1.41963458405 1.0015120146e-05 0)
(1.41963332209 1.0105018168e-05 0)
(1.41963170287 9.56443773814e-06 0)
(1.41962962012 8.031624214e-06 0)
(1.41962698348 4.96969815937e-06 0)
(1.41962249718 -6.71066942478e-08 0)
(1.41961450219 -7.57919666056e-06 0)
(1.4196016576 -2.05099624418e-05 0)
(1.41958116124 -4.227296951e-05 0)
(1.41954795138 -7.69366370941e-05 0)
(1.41949382572 -0.000131385371179 0)
(1.41940569151 -0.000216437234824 0)
(1.41926243038 -0.000348754325931 0)
(1.41903003693 -0.000553995792412 0)
(1.41865393125 -0.000871653013757 0)
(1.41804676831 -0.00136227431553 0)
(1.41706929334 -0.00211793440821 0)
(1.41550063489 -0.00327674518544 0)
(1.41299320311 -0.00504115975566 0)
(1.40900728247 -0.00769679979761 0)
(1.4027213633 -0.0116217429 0)
(1.39292566394 -0.0172602213706 0)
(1.37797783951 -0.0250167084394 0)
(1.3558102748 -0.0350531715449 0)
(1.32354405452 -0.0469062601227 0)
(0.993266160913 0.00613674145038 0)
(1.03140516668 0.0169405173291 0)
(1.08596049452 0.0236247576732 0)
(1.14981034131 0.0259169025816 0)
(1.21438262728 0.0248447037943 0)
(1.2726538225 0.0217305777644 0)
(1.32122486902 0.0177308724784 0)
(1.35932785686 0.0136661333856 0)
(1.38770721361 0.0100196146448 0)
(1.4078632108 0.00701153248089 0)
(1.42153635542 0.00468626122257 0)
(1.43038724742 0.0029860618798 0)
(1.4358335119 0.00180507222539 0)
(1.43899374587 0.0010249442717 0)
(1.44069561336 0.000535760920976 0)
(1.4415171921 0.000246143601017 0)
(1.44184060638 8.60975550927e-05 0)
(1.4419049561 5.49821546132e-06 0)
(1.44185059265 -2.91668996495e-05 0)
(1.44175436021 -3.93982309186e-05 0)
(1.44165494007 -3.79321991688e-05 0)
(1.44156873173 -3.18361867459e-05 0)
(1.44150048452 -2.47326114724e-05 0)
(1.44144948477 -1.82566012092e-05 0)
(1.44141290257 -1.29779509736e-05 0)
(1.44138747656 -8.94742055495e-06 0)
(1.44137026505 -5.99719767721e-06 0)
(1.4413588902 -3.90482101179e-06 0)
(1.44135154604 -2.45313818248e-06 0)
(1.44134692427 -1.45733351282e-06 0)
(1.44134411035 -7.75766808383e-07 0)
(1.44134247724 -3.12851836979e-07 0)
(1.44134159881 6.61546014836e-09 0)
(1.44134120317 2.53461463615e-07 0)
(1.44134110918 4.61751501132e-07 0)
(1.44134117907 6.32374624733e-07 0)
(1.4413413317 7.95973382664e-07 0)
(1.44134152537 9.64084115478e-07 0)
(1.44134172815 1.14660973915e-06 0)
(1.4413419175 1.35183860468e-06 0)
(1.44134207945 1.58648222267e-06 0)
(1.44134220535 1.85692284982e-06 0)
(1.4413422898 2.16934061136e-06 0)
(1.44134232953 2.52980175076e-06 0)
(1.44134232204 2.94402003689e-06 0)
(1.44134226453 3.41713218504e-06 0)
(1.44134215365 3.95377085469e-06 0)
(1.44134198366 4.55668692875e-06 0)
(1.44134174688 5.22956986729e-06 0)
(1.44134143698 5.97402665057e-06 0)
(1.44134104759 6.78618824047e-06 0)
(1.44134056854 7.65667216037e-06 0)
(1.44133998225 8.5672091017e-06 0)
(1.44133925867 9.48610173943e-06 0)
(1.44133834804 1.03626432662e-05 0)
(1.44133717053 1.11191706503e-05 0)
(1.44133560109 1.16383733766e-05 0)
(1.44133344293 1.17430082417e-05 0)
(1.44133041483 1.11537262418e-05 0)
(1.44132625428 9.35188751877e-06 0)
(1.44132028483 5.46889865523e-06 0)
(1.44130994148 -4.02782223531e-07 0)
(1.44129209111 -8.69825221782e-06 0)
(1.44126396469 -2.10053483126e-05 0)
(1.44121974836 -4.05091927355e-05 0)
(1.44114892552 -7.10273115166e-05 0)
(1.44103525836 -0.000117861411277 0)
(1.44085306919 -0.00018872849832 0)
(1.44056149434 -0.00029494311263 0)
(1.44009568526 -0.000453138645403 0)
(1.43935319623 -0.000687703397455 0)
(1.43817315875 -0.00103403914424 0)
(1.43630504702 -0.00154261973708 0)
(1.43336331281 -0.00228325785892 0)
(1.42876507165 -0.00334773615714 0)
(1.4216509258 -0.00484678432827 0)
(1.41080072764 -0.00689271581159 0)
(1.39461401699 -0.00955624298123 0)
(1.37115324204 -0.0128078016641 0)
(1.33785824372 -0.0164202911409 0)
(0.993266959325 -0.00613486345754 0)
(1.03140515009 -0.0169388614531 0)
(1.08596042646 -0.0236239144381 0)
(1.14981037259 -0.0259165201073 0)
(1.21438269404 -0.0248446398667 0)