/*--------------------------------*- C++ -*----------------------------------*\
| =========                 |                                                 |
| \\      /  F ield         | OpenFOAM: The Open Source CFD Toolbox           |
|  \\    /   O peration     | Version:  2106                                  |
|   \\  /    A nd           | Website:  www.openfoam.com                      |
|    \\/     M anipulation  |                                                 |
\*---------------------------------------------------------------------------*/
FoamFile
{
    version     2.0;
    format      ascii;
    arch        "LSB;label=32;scalar=64";
    class       surfaceScalarField;
    location    "0.365";
    object      phi;
}
// * * * * * * * * * * * * * * * * * * * * * * * * * * * * * * * * * * * * * //

dimensions      [0 3 -1 0 0 0 0];

oriented        oriented;

internalField   nonuniform List<scalar> 
22100
(
3.384612046e-05
1.6153879512e-05
2.24572102535e-05
1.13889101917e-05
1.62585535839e-05
6.19865659976e-06
1.27977767967e-05
3.46077672368e-06
1.08046430551e-05
1.99313365383e-06
9.60459010146e-06
1.20005284019e-06
8.85132234371e-06
7.53267608407e-07
8.36435347214e-06
4.86968693212e-07
8.04433548704e-06
3.20017782303e-07
7.83284055755e-06
2.11494708411e-07
7.6933972439e-06
1.39443077352e-07
7.60224020861e-06
9.11567908099e-08
7.54347729428e-06
5.87626712621e-08
7.50634026869e-06
3.71367930032e-08
7.48350067162e-06
2.28393814867e-08
7.46997978905e-06
1.35206884915e-08
7.4624151432e-06
7.56448017029e-09
7.45854709264e-06
3.86787153135e-09
7.45682809655e-06
1.7187922823e-09
7.45642142207e-06
4.06478169034e-10
7.45677122769e-06
-3.49947209958e-10
7.45745736463e-06
-6.86289026753e-10
7.45821564731e-06
-7.58443227965e-10
7.45894086134e-06
-7.25393463508e-10
7.45958504977e-06
-6.44384559443e-10
7.46012883472e-06
-5.43991431867e-10
7.46057077004e-06
-4.42155049687e-10
7.46091931588e-06
-3.48770238302e-10
7.46118738686e-06
-2.68296993424e-10
7.46138908835e-06
-2.01933445432e-10
7.46153778413e-06
-1.4894304128e-10
7.461645182e-06
-1.07697385955e-10
7.46172101967e-06
-7.61474358537e-11
7.4617734825e-06
-5.27069791981e-11
7.46180650617e-06
-3.32282654666e-11
7.46182505201e-06
-1.88125316864e-11
7.46183392926e-06
-9.12138538685e-12
7.46183652802e-06
-2.88378224792e-12
7.4618348386e-06
1.43720937391e-12
7.46182997403e-06
4.6337698528e-12
7.46182286921e-06
6.88550643063e-12
7.46181413221e-06
8.52115164325e-12
7.46180408916e-06
9.77554990827e-12
7.46179294916e-06
1.08833949443e-11
7.46178071782e-06
1.19891668579e-11
7.46176724426e-06
1.32192846976e-11
7.46175232856e-06
1.46794932563e-11
7.46173564235e-06
1.64420241681e-11
7.46171676802e-06
1.86173601668e-11
7.46169517373e-06
2.13263167651e-11
7.46167025507e-06
2.46359755707e-11
7.46164133529e-06
2.86350660059e-11
7.46160764741e-06
3.34137417656e-11
7.46156837449e-06
3.90394098967e-11
7.46152264946e-06
4.55157507541e-11
7.46146960042e-06
5.28252838211e-11
7.46140861154e-06
6.07967161522e-11
7.46133955842e-06
6.89177756878e-11
7.46126332959e-06
7.62347088354e-11
7.46118199058e-06
8.10648817318e-11
7.46110228222e-06
7.96656609985e-11
7.46103606361e-06
6.61802107515e-11
7.46099097036e-06
4.52224402785e-11
7.46098658138e-06
4.57763466419e-12
7.46105852966e-06
-7.20934107377e-11
7.46126515208e-06
-2.06782410487e-10
7.46170118863e-06
-4.3597562971e-10
7.46251660341e-06
-8.15321676636e-10
7.4639465045e-06
-1.42999546814e-09
7.46634632834e-06
-2.40003555215e-09
7.47016542599e-06
-3.81925009416e-09
7.47661517119e-06
-6.44978802897e-09
7.48738626356e-06
-1.07710952004e-08
7.50556068546e-06
-1.81744486576e-08
7.53874438543e-06
-3.31837388686e-08
7.60795474847e-06
-6.92103695718e-08
7.77460576287e-06
-1.66650966041e-07
8.2294874287e-06
-4.54881624461e-07
9.69702362494e-06
-1.46753622337e-06
-5.45105566563e-06
1.51480794627e-05
5.02175948243e-05
1.59362845994e-05
4.42441115887e-05
1.73623933522e-05
3.77795014109e-05
1.26632666275e-05
3.2646143872e-05
8.59413408759e-06
2.89380916614e-05
5.70118563423e-06
2.63596211348e-05
3.77852308786e-06
2.45875165602e-05
2.52537185199e-06
2.33734743116e-05
1.70101056849e-06
2.2543525054e-05
1.14996663237e-06
2.19782161541e-05
7.76803181874e-07
2.15955134151e-05
5.22145384757e-07
2.13387366538e-05
3.47933128196e-07
2.11684949568e-05
2.29003959982e-07
2.10573371907e-05
1.48294156858e-07
2.09861491314e-05
9.40270332676e-08
2.09416766274e-05
5.79928078881e-08
2.09147946917e-05
3.44460614393e-08
2.08992954992e-05
1.93667630384e-08
2.08910716263e-05
9.94237880871e-09
2.08872712011e-05
4.20655968787e-09
2.08862020527e-05
7.18842462084e-10
2.08864475415e-05
-9.32115630702e-10
2.08873187535e-05
-1.62998403109e-09
2.08884580065e-05
-1.86498685834e-09
2.08896310691e-05
-1.81780695651e-09
2.08907137796e-05
-1.62708747185e-09
2.08916510833e-05
-1.37987547515e-09
2.08924283018e-05
-1.12645128932e-09
2.08930531932e-05
-8.93701175066e-10
2.08935450081e-05
-6.94252603908e-10
2.08939285227e-05
-5.32909972957e-10
2.0894229747e-05
-4.09402266846e-10
2.08944403823e-05
-2.87290148274e-10
2.08945871265e-05
-2.00007524374e-10
2.08946871399e-05
-1.33773936439e-10
2.08947522118e-05
-8.43050336476e-11
2.08947924434e-05
-4.9801233021e-11
2.08948160261e-05
-2.68986523969e-11
2.0894827782e-05
-1.07498348791e-11
2.0894830625e-05
1.32767539949e-12
2.08948269918e-05
1.00454421557e-11
2.08948185556e-05
1.6520785353e-11
2.08948064459e-05
2.14734829331e-11
2.08947913758e-05
2.55271243124e-11
2.08947737376e-05
2.92055730059e-11
2.08947536457e-05
3.28490684631e-11
2.08947310931e-05
3.67450099035e-11
2.08947059664e-05
4.10934179305e-11
2.08946780627e-05
4.60496609544e-11
2.08946471135e-05
5.1811133835e-11
2.08946129034e-05
5.83781591106e-11
2.08945753054e-05
6.57787588769e-11
2.08945343499e-05
7.39574495385e-11
2.08944903798e-05
8.26637320754e-11
2.08944442968e-05
9.13130197293e-11
2.08943978543e-05
9.89447359975e-11
2.08943544315e-05
1.03875565648e-10
2.08943198918e-05
1.03012287869e-10
2.08943040783e-05
9.21790595716e-11
2.08943219662e-05
6.33302172806e-11
2.08944007825e-05
8.29953018694e-13
2.08945891359e-05
-1.22399818778e-10
2.08949552191e-05
-3.21427902668e-10
2.08956184652e-05
-6.58637829976e-10
2.0896685576e-05
-1.13918972021e-09
2.08983343032e-05
-1.85578433562e-09
2.09009226693e-05
-3.0247188779e-09
2.09049985064e-05
-4.89145242848e-09
2.09114309049e-05
-7.86250087744e-09
2.09216433419e-05
-1.26125281751e-08
2.09381257435e-05
-2.03017503564e-08
2.09650227486e-05
-3.33469238393e-08
2.10092732994e-05
-5.50217530248e-08
2.10840481355e-05
-9.29493396078e-08
2.12152693934e-05
-1.64404985867e-07
2.1455836759e-05
-3.09777682872e-07
2.19135889336e-05
-6.24403080736e-07
2.28004031344e-05
-1.34169564755e-06
2.44440305926e-05
-3.11116339203e-06
-7.03708336798e-06
2.6030056482e-05
5.35171052555e-05
1.24191792591e-05
5.29349681931e-05
1.79445303473e-05
4.96538398823e-05
1.5944394807e-05
4.58401810772e-05
1.24077927403e-05
4.24400918926e-05
9.10127462114e-06
3.97291717208e-05
6.4894430205e-06
3.76873050009e-05
4.56723828538e-06
3.61976619085e-05
3.19065333763e-06
3.5132610993e-05
2.21501719574e-06
3.43823656497e-05
1.52704815122e-06
3.38606243737e-05
1.04388627735e-06
3.35023438487e-05
7.06213280734e-07
3.32595986807e-05
4.71748779629e-07
3.30975881251e-05
3.10304381087e-07
3.29913318165e-05
2.00283022628e-07
3.29230897176e-05
1.26234606755e-07
3.28804015193e-05
7.71339159048e-08
3.2854616153e-05
4.5151852299e-08
3.28397888245e-05
2.47694707453e-08
3.28318620567e-05
1.21330612283e-08
3.28279922854e-05
4.58833670588e-09
3.28269933873e-05
6.6487937319e-11
3.28271738411e-05
-1.81074077916e-09
3.28280219203e-05
-2.71338408103e-09
3.28291373338e-05
-2.93355196915e-09
3.28302842005e-05
-2.7742943186e-09
3.28313397769e-05
-2.43580045293e-09
3.28322497528e-05
-2.03680449753e-09
3.28329992752e-05
-1.64364197875e-09
3.28335944145e-05
-1.28985210108e-09
3.2834050166e-05
-9.8911515835e-10
3.28343846315e-05
-7.44244036606e-10
3.28346504614e-05
-5.53509787694e-10
3.28348663109e-05
-4.16256213903e-10
3.2835012926e-05
-2.8085147179e-10
3.28351116147e-05
-1.83394767814e-10
3.28351769448e-05
-1.15528194981e-10
3.28352183361e-05
-6.86741019299e-11
3.28352426822e-05
-3.5459159625e-11
3.28352539147e-05
-1.02951432671e-11
3.28352556467e-05
7.95990506228e-12
3.28352503352e-05
2.14298061871e-11
3.28352398232e-05
3.15883472102e-11
3.2835225336e-05
3.96146322903e-11
3.28352076306e-05
4.65147831143e-11
3.28351871794e-05
5.29446553367e-11
3.28351642721e-05
5.93021113334e-11
3.28351391159e-05
6.58811945353e-11
3.28351118417e-05
7.29243437015e-11
3.28350824571e-05
8.07847762042e-11
3.28350512842e-05
8.91633534581e-11
3.28350189355e-05
9.77532039279e-11
3.28349864529e-05
1.06049715062e-10
3.28349556364e-05
1.130689838e-10
3.28349295666e-05
1.17044001063e-10
3.28349129038e-05
1.15403725315e-10
3.28349127794e-05
1.04044401109e-10
3.28349406101e-05
7.50541234556e-11
3.28350137454e-05
1.84093266183e-11
3.28351620021e-05
-8.55604584001e-11
3.2835436996e-05
-2.74343623173e-10
3.28359282728e-05
-6.13364790828e-10
3.28366472129e-05
-1.04095534869e-09
3.28376918634e-05
-1.70366840743e-09
3.28393210576e-05
-2.76869343757e-09
3.28419093563e-05
-4.44438520333e-09
3.28459610001e-05
-7.07644762362e-09
3.28522903607e-05
-1.1220878049e-08
3.28622102399e-05
-1.77825183591e-08
3.28778845793e-05
-2.82870487439e-08
3.29029729098e-05
-4.53902358986e-08
3.29428244436e-05
-7.31985532431e-08
3.30072657763e-05
-1.19463128751e-07
3.31132733106e-05
-1.98956876455e-07
3.3289849771e-05
-3.40981397778e-07
3.35851813074e-05
-6.05109166445e-07
3.40703179953e-05
-1.10953980184e-06
3.48113514032e-05
-2.08272890467e-06
3.5672037719e-05
-3.97184812195e-06
-7.10508600658e-06
3.57400448064e-05
5.3510566376e-05
8.90861280625e-06
5.55742220926e-05
1.58808745647e-05
5.52424822585e-05
1.62761345184e-05
5.35977855757e-05
1.40524892801e-05
5.15418471409e-05
1.11572128649e-05
4.95802791638e-05
8.45101076576e-06
4.79243498997e-05
6.22316727543e-06
4.66181377591e-05
4.49686516796e-06
4.56304646759e-05
3.20268994086e-06
4.49051154395e-05
2.25239702912e-06
4.43840879632e-05
1.56491338315e-06
4.40166915335e-05
1.0736093407e-06
4.37619647685e-05
7.26475186918e-07
4.35882659037e-05
4.84002916642e-07
4.34718663194e-05
3.16682332944e-07
4.33953560164e-05
2.02744600633e-07
4.33461855217e-05
1.26304126572e-07
4.33154476783e-05
7.58893786157e-08
4.32969111067e-05
4.33057712661e-08
4.32862848222e-05
2.27590875232e-08
4.32806817434e-05
1.01911540165e-08
4.32778738149e-05
2.87414183928e-09
4.3277045791e-05
-9.83006079857e-10
4.32772634107e-05
-2.93131187534e-09
4.32779506574e-05
-3.62113265861e-09
4.3278813402e-05
-3.63739411165e-09
4.3279685878e-05
-3.30864160036e-09
4.32804829747e-05
-2.83426197374e-09
4.32811683455e-05
-2.32937144386e-09
4.32817337596e-05
-1.85566387599e-09
4.32821860711e-05
-1.44187574295e-09
4.32825379662e-05
-1.09657725012e-09
4.32827992753e-05
-8.1518256602e-10
4.32829741331e-05
-5.91496406375e-10
4.32831067212e-05
-4.13809784692e-10
4.32831916542e-05
-2.68719312684e-10
4.32832452458e-05
-1.69496581055e-10
4.32832846685e-05
-1.08501341378e-10
4.32833087097e-05
-5.99035123678e-11
4.32833203688e-05
-2.2369806276e-11
4.32833230975e-05
4.83277966279e-12
4.32833188481e-05
2.53021445115e-11
4.32833092965e-05
4.07556703037e-11
4.32832956386e-05
5.28992276032e-11
4.32832785292e-05
6.32427606911e-11
4.32832583945e-05
7.26561270225e-11
4.32832355966e-05
8.16767228914e-11
4.3283210423e-05
9.06196537636e-11
4.32831832341e-05
9.96675444025e-11
4.3283154615e-05
1.08968282522e-10
4.3283125235e-05
1.18140909587e-10
4.32830960875e-05
1.26550450922e-10
4.32830686458e-05
1.33145214099e-10
4.32830449941e-05
1.36310722344e-10
4.32830281496e-05
1.33534123807e-10
4.32830226903e-05
1.20594151572e-10
4.32830364982e-05
8.99313572464e-11
4.32830816495e-05
2.96908507883e-11
4.32831777952e-05
-7.71463465627e-11
4.32833405376e-05
-2.48383093531e-10
4.32835850822e-05
-5.19513048381e-10
4.32840311571e-05
-1.05929175176e-09
4.32848066118e-05
-1.81649763026e-09
4.3286064513e-05
-2.96146380509e-09
4.32880128008e-05
-4.71683707687e-09
4.32910015719e-05
-7.43328241401e-09
4.32955906202e-05
-1.16657010929e-08
4.33026585595e-05
-1.828903783e-08
4.33135873814e-05
-2.87115053227e-08
4.33305345442e-05
-4.52343143038e-08
4.33568082225e-05
-7.16639809574e-08
4.33979767226e-05
-1.143671134e-07
4.34628874446e-05
-1.84373904402e-07
4.356525715e-05
-3.01326593122e-07
4.37250270718e-05
-5.00751266184e-07
4.39667706131e-05
-8.46852636727e-07
4.43071168345e-05
-1.44988612844e-06
4.47073131216e-05
-2.48292586408e-06
4.49263981912e-05
-4.1909338463e-06
-6.5756429751e-06
4.43969578012e-05
5.27351379086e-05
6.17347483034e-06
5.57309342717e-05
1.28850781372e-05
5.73114739639e-05
1.46955947045e-05
5.76109913097e-05
1.3752971794e-05
5.71335219653e-05
1.1634682023e-05
5.63194672662e-05
9.26506523555e-06
5.54489869176e-05
7.09364735261e-06
5.46629761748e-05
5.28287560426e-06
5.40136804256e-05
3.8519853578e-06
5.35061489092e-05
2.75992819958e-06
5.31242528245e-05
1.94680911897e-06
5.28449831387e-05
1.35287867536e-06
5.26454367701e-05
9.26021190696e-07
5.25057124284e-05
6.23726894285e-07
5.2409717591e-05
4.1267685272e-07
5.23450115461e-05
2.67450395026e-07
5.23022736968e-05
1.69041727195e-07
5.22746864833e-05
1.03476310269e-07
5.22573618853e-05
6.06300965119e-08
5.22468531099e-05
3.3267592699e-08
5.22407532601e-05
1.62907354131e-08
5.22374441698e-05
6.18295691278e-09
5.22359451777e-05
5.15701785289e-10
5.2235436834e-05
-2.42326797422e-09
5.22355013112e-05
-3.68593100735e-09
5.22358462304e-05
-3.98266619319e-09
5.22362998855e-05
-3.76267527252e-09
5.22367656489e-05
-3.30040333051e-09
5.22371924339e-05
-2.75654052271e-09
5.22375575164e-05
-2.2211209092e-09
5.2237854209e-05
-1.73892477366e-09
5.22380852746e-05
-1.32805391158e-09
5.22382610606e-05
-9.9134733253e-10
5.22383933954e-05
-7.242170562e-10
5.22384932589e-05
-5.14067401509e-10
5.22385774014e-05
-3.53243066317e-10
5.2238642455e-05
-2.34931740712e-10
5.2238684298e-05
-1.50718514278e-10
5.22387166242e-05
-9.26127787392e-11
5.22387316337e-05
-3.77612350892e-11
5.2238736492e-05
-4.23820099048e-13
5.22387337879e-05
2.76022555635e-11
5.22387254407e-05
4.87093224955e-11
5.22387128105e-05
6.51417686194e-11
5.22386967561e-05
7.89228438878e-11
5.2238677845e-05
9.12144216433e-11
5.2238656549e-05
1.02625039656e-10
5.2238633494e-05
1.13320087745e-10
5.22386099659e-05
1.22821583247e-10
5.22385838265e-05
1.3471081312e-10
5.22385567348e-05
1.44822345028e-10
5.22385298713e-05
1.53007000958e-10
5.22385048787e-05
1.57777395283e-10
5.22384844315e-05
1.56491591775e-10
5.22384741375e-05
1.43691161317e-10
5.22384831772e-05
1.11293872216e-10
5.22385145461e-05
5.83086869195e-11
5.22385917841e-05
-4.78887770028e-11
5.22387122745e-05
-1.98315618706e-10
5.22389084413e-05
-4.44307230439e-10
5.22392470726e-05
-8.57987421149e-10
5.22397665585e-05
-1.5790688179e-09
5.22405417646e-05
-2.59177869604e-09
5.22417053843e-05
-4.12530207876e-09
5.2243460932e-05
-6.47249457093e-09
5.22461096897e-05
-1.00821532638e-08
5.22501036071e-05
-1.56598251989e-08
5.22561339283e-05
-2.43196037705e-08
5.22652595655e-05
-3.78373188418e-08
5.22790978197e-05
-5.907265338e-08
5.23001061699e-05
-9.26723721792e-08
5.23319996316e-05
-1.46260614052e-07
5.23801203619e-05
-2.32494669502e-07
5.24513920987e-05
-3.72598318876e-07
5.255267447e-05
-6.02033576334e-07
5.26845069582e-05
-9.78684990491e-07
5.28246583693e-05
-1.5900372255e-06
5.2891642633e-05
-2.54991012707e-06
5.26730181669e-05
-3.97231031629e-06
-5.76675453985e-06
5.18641309967e-05
5.19834863743e-05
4.1899883887e-06
5.50586637895e-05
9.80990065561e-06
5.76386128688e-05
1.21156455025e-05
5.93259026351e-05
1.20656818857e-05
6.02280144472e-05
1.07325700249e-05
6.05929253703e-05
8.90015408406e-06
6.06482819934e-05
7.03829045791e-06
6.05531872073e-05
5.37797008089e-06
6.04029522821e-05
4.00221994467e-06
6.02479114155e-05
2.91496871608e-06
6.01107855313e-05
2.08393466074e-06
5.99990256626e-05
1.46463821438e-06
5.99125101453e-05
1.01253638652e-06
5.98479179403e-05
6.88318814532e-07
5.98010140418e-05
4.59580416048e-07
5.97677290784e-05
3.00735052548e-07
5.97445874261e-05
1.92183120617e-07
5.97288085675e-05
1.19254909523e-07
5.97182601033e-05
7.11783016256e-08
5.97113535821e-05
4.01738386254e-08
5.97069338932e-05
2.0710140878e-08
5.97041996449e-05
8.91691137529e-09
5.97025902346e-05
2.12480237068e-09
5.97016853101e-05
-1.51866609363e-09
5.97012266004e-05
-3.22755406331e-09
5.97010366377e-05
-3.79305771012e-09
5.97009999022e-05
-3.72631911081e-09
5.97010437065e-05
-3.34464362217e-09
5.97011243941e-05
-2.83761204305e-09
5.97012162649e-05
-2.31337858639e-09
5.97013054317e-05
-1.82852746326e-09
5.97013853042e-05
-1.40832948137e-09
5.97014544644e-05
-1.06088982431e-09
5.97015134812e-05
-7.83631829118e-10
5.97015632023e-05
-5.64165845207e-10
5.97016025003e-05
-3.929220587e-10
5.97016297878e-05
-2.62616772637e-10
5.97016446216e-05
-1.65957448686e-10
5.97016425764e-05
-9.09667920187e-11
5.97016341306e-05
-2.97235518323e-11
5.97016271925e-05
6.10717676954e-12
5.97016177203e-05
3.66775259105e-11
5.9701606908e-05
5.911757575e-11
5.97015950155e-05
7.6636741686e-11
5.97015809201e-05
9.26125965791e-11
5.97015644641e-05
1.07258556296e-10
5.97015457341e-05
1.2094357294e-10
5.97015247978e-05
1.33850321166e-10
5.97015013011e-05
1.45924719983e-10
5.97014786922e-05
1.56927440142e-10
5.97014569829e-05
1.66096500232e-10
5.97014373483e-05
1.72139502361e-10
5.97014215199e-05
1.73192063699e-10
5.97014110589e-05
1.66792085109e-10
5.97014043632e-05
1.50083483326e-10
5.97013957741e-05
1.19779524514e-10
5.97014009256e-05
5.2843776861e-11
5.97014130733e-05
-5.97966401617e-11
5.97014986432e-05
-2.84068747244e-10
5.97016884576e-05
-6.34849003514e-10
5.97019894007e-05
-1.15886145516e-09
5.97023775023e-05
-1.96754520502e-09
5.97029576683e-05
-3.17212680794e-09
5.97038120564e-05
-4.9800698177e-09
5.97050548221e-05
-7.71562957015e-09
5.97068511539e-05
-1.18786643504e-08
5.97094390178e-05
-1.82478856755e-08
5.97131624344e-05
-2.80432548514e-08
5.97185111401e-05
-4.31862143773e-08
5.97261657498e-05
-6.67273683945e-08
5.97370273886e-05
-1.03534064406e-07
5.9752158017e-05
-1.61391271898e-07
5.97723943824e-05
-2.52731033806e-07
5.97971435815e-05
-3.97347475346e-07
5.98212475308e-05
-6.26137494854e-07
5.98278306454e-05
-9.85268072266e-07
5.97748554909e-05
-1.53706191895e-06
5.95744131204e-05
-2.34946776997e-06
5.90687115435e-05
-3.46660938999e-06
-4.795647508e-06
5.80976053027e-05
5.14373052778e-05
2.75268304168e-06
5.42658203846e-05
6.98138547643e-06
5.72496428788e-05
9.13182288269e-06
5.97900270298e-05
9.52529758935e-06
6.17201272714e-05
8.80246959704e-06
6.30883019272e-05
7.53197920244e-06
6.40167151613e-05
6.1098769584e-06
6.46292346069e-05
4.76545033291e-06
6.50258011935e-05
3.60565302357e-06
6.52790753897e-05
2.66169416806e-06
6.54389700665e-05
1.92403963665e-06
6.5538686538e-05
1.36492140507e-06
6.55999247288e-05
9.51297857848e-07
6.56367392294e-05
6.51504015175e-07
6.5658190028e-05
4.38129335773e-07
6.56700979668e-05
2.88826831379e-07
6.56761869405e-05
1.86093880512e-07
6.5678822989e-05
1.16618604876e-07
6.56794931728e-05
7.05078619793e-08
6.56791167062e-05
4.05500385848e-08
6.56782490401e-05
2.1577524881e-08
6.56772178381e-05
9.94781274745e-09
6.56762082781e-05
3.13403759268e-09
6.56752986824e-05
-6.0940834207e-10
6.56745296433e-05
-2.45886552984e-09
6.56739009142e-05
-3.16470164752e-09
6.56734016552e-05
-3.22739620777e-09
6.56730143577e-05
-2.95773219892e-09
6.5672720078e-05
-2.54371980827e-09
6.56725006324e-05
-2.09431499542e-09
6.56723399414e-05
-1.66816024252e-09
6.56722243003e-05
-1.29305399026e-09
6.56721415922e-05
-9.78560519546e-10
6.56720811886e-05
-7.23603618427e-10
6.56720373241e-05
-5.20672338548e-10
6.56720057694e-05
-3.61747998137e-10
6.56719803825e-05
-2.3763554794e-10
6.56719584932e-05
-1.44465629431e-10
6.56719431655e-05
-7.60645537769e-11
6.56719410277e-05
-2.80028683491e-11
6.56719391213e-05
7.62256480402e-12
6.56719314104e-05
4.40094631394e-11
6.56719211377e-05
6.90206170036e-11
6.56719083656e-05
8.90462837129e-11
6.56718940451e-05
1.06577913812e-10
6.56718782e-05
1.22725546368e-10
6.56718606897e-05
1.38054292129e-10
6.5671841447e-05
1.52691471439e-10
6.56718209538e-05
1.66044557938e-10
6.56718013319e-05
1.76216924674e-10
6.56717815158e-05
1.85569267789e-10
6.5671762005e-05
1.91249628227e-10
6.56717439945e-05
1.90834235738e-10
6.56717292962e-05
1.80960895554e-10
6.5671722104e-05
1.56894821293e-10
6.56717292576e-05
1.12110331326e-10
6.56717353262e-05
4.64630111035e-11
6.56717696423e-05
-9.41164789865e-11
6.5671837568e-05
-3.51976219795e-10
6.5671936469e-05
-7.33717777509e-10
6.56720877551e-05
-1.31020084204e-09
6.56722982941e-05
-2.17825331609e-09
6.56725847749e-05
-3.45874182756e-09
6.56729638031e-05
-5.35923749505e-09
6.56734463786e-05
-8.19849894464e-09
6.56740304551e-05
-1.24629169464e-08
6.56746859762e-05
-1.89035546955e-08
6.56753275909e-05
-2.86850405249e-08
6.56757547439e-05
-4.3613527695e-08
6.56755403691e-05
-6.65131028041e-08
6.56738158933e-05
-1.01809652236e-07
6.56688485844e-05
-1.564239844e-07
6.56571059976e-05
-2.40988409958e-07
6.56314625274e-05
-3.71703931823e-07
6.55777726601e-05
-5.72447602375e-07
6.54688141854e-05
-8.76309542303e-07
6.52554404126e-05
-1.32368791679e-06
6.48576435586e-05
-1.95167054073e-06
6.41630206908e-05
-2.77198710518e-06
-3.7141068064e-06
6.30814803906e-05
5.10850422712e-05
1.66764069993e-06
5.36118443687e-05
4.45458329974e-06
5.66873161224e-05
6.05635099837e-06
5.96894459403e-05
6.52316762028e-06
6.22997263157e-05
6.19218903148e-06
6.44136876079e-05
5.41801768284e-06
6.60471834506e-05
4.47638085399e-06
6.72686146774e-05
3.54401881283e-06
6.81598933877e-05
2.71437399322e-06
6.87977596686e-05
2.02382754821e-06
6.9246743749e-05
1.47505521256e-06
6.95579623159e-05
1.05370250465e-06
6.97704287769e-05
7.38831093368e-07
6.99131716596e-05
5.08760824211e-07
7.00073826405e-05
3.43918075686e-07
7.00682921372e-05
2.2791707943e-07
7.01066941334e-05
1.47691621471e-07
7.01301364248e-05
9.31760512929e-08
7.01438255439e-05
5.68184800718e-08
7.01513016268e-05
3.30736817906e-08
7.01549340666e-05
1.79447993066e-08
7.01562817826e-05
8.59979190239e-09
7.01563535585e-05
3.06193348319e-09
7.01557614291e-05
-1.76328957072e-11
7.01549003878e-05
-1.59818348112e-09
7.01539766008e-05
-2.24129195012e-09
7.01531077643e-05
-2.35895031538e-09
7.01523475549e-05
-2.19789281355e-09
7.01517131875e-05
-1.90971068182e-09
7.0151201778e-05
-1.58332128154e-09
7.0150800423e-05
-1.26721122434e-09
7.01504921882e-05
-9.85175619248e-10
7.01502594149e-05
-7.46145868783e-10
7.01500859286e-05
-5.50497022506e-10
7.0149958734e-05
-3.93895436704e-10
7.01498672017e-05
-2.70615877769e-10
7.01498042021e-05
-1.75053544358e-10
7.01497622969e-05
-1.02980457777e-10
7.01497334474e-05
-4.76477863637e-11
7.01497032288e-05
1.76170722717e-12
7.01496795215e-05
3.08816784765e-11
7.01496661365e-05
5.69589910414e-11
7.01496553506e-05
7.93718216717e-11
7.01496451818e-05
9.88053458207e-11
7.01496348721e-05
1.16495066482e-10
7.01496240397e-05
1.33174902842e-10
7.01496125458e-05
1.49161515812e-10
7.01496004185e-05
1.64412515543e-10
7.01495875131e-05
1.78546289377e-10
7.01495724122e-05
1.9093167788e-10
7.01495570484e-05
2.00595554762e-10
7.0149542345e-05
2.05771296955e-10
7.01495290076e-05
2.0409724195e-10
7.01495174969e-05
1.9218119093e-10
7.01495074777e-05
1.66651930345e-10
7.01494963091e-05
1.23465875357e-10
7.01494895513e-05
5.24459883864e-11
7.0149478453e-05
-8.32718387288e-11
7.01494897363e-05
-3.63505000658e-10
7.01495128017e-05
-7.5717672429e-10
7.01495361537e-05
-1.33384336735e-09
7.01495385513e-05
-2.18054367497e-09
7.01494928036e-05
-3.41324894093e-09
7.01493459084e-05
-5.21254403289e-09
7.01489989501e-05
-7.85173593459e-09
7.01482769087e-05
-1.17410543919e-08
7.01468782977e-05
-1.75051028823e-08
7.01442918311e-05
-2.60987161999e-08
7.01396437283e-05
-3.89655459372e-08
7.01314534325e-05
-5.83228998791e-08
7.01172324302e-05
-8.75887160498e-08
7.00928279413e-05
-1.32019508896e-07
7.00511535264e-05
-1.99313921528e-07
6.99802409158e-05
-3.00791193404e-07
6.98601339128e-05
-4.52340472708e-07
6.96584044956e-05
-6.7458001145e-07
6.93251666805e-05
-9.90450221996e-07
6.87909164888e-05
-1.41741990668e-06
6.79731332265e-05
-1.9542042302e-06
-2.55480270004e-06
6.68138292215e-05
5.08804131073e-05
7.87227517917e-07
5.31704659924e-05
2.16453032693e-06
5.6217749381e-05
3.00906747154e-06
5.94382691902e-05
3.30264765334e-06
6.2444968772e-05
3.18548925314e-06
6.50382519101e-05
2.82473431049e-06
6.71548651637e-05
2.35976733317e-06
6.88135633112e-05
1.88532037189e-06
7.00731689462e-05
1.45476804807e-06
7.10056655374e-05
1.09133063832e-06
7.16812614559e-05
7.99458965868e-07
7.21614204374e-05
5.73543187954e-07
7.24966010346e-05
4.03650211941e-07
7.27264772685e-05
2.78884305659e-07
7.28812758552e-05
1.89119205722e-07
7.29834653313e-05
1.25727355249e-07
7.304940884e-05
8.17478611959e-08
7.30908106747e-05
5.17739554122e-08
7.3115904345e-05
3.17245422595e-08
7.31303885752e-05
1.85891693859e-08
7.31381429881e-05
1.01900858636e-08
7.31417631044e-05
4.97935899098e-09
7.31429504803e-05
1.87421348902e-09
7.3142803671e-05
1.2880065123e-10
7.31419800673e-05
-7.7497807569e-10
7.31408967728e-05
-1.15838741741e-09
7.31397814779e-05
-1.24409681342e-09
7.31387536411e-05
-1.17047914075e-09
7.3137865699e-05
-1.02217273583e-09
7.31371315897e-05
-8.49569474224e-10
7.31365438863e-05
-6.79905302366e-10
7.31360852486e-05
-5.26912797217e-10
7.31357347937e-05
-3.9605833836e-10
7.31354718722e-05
-2.87956267217e-10
7.31352781648e-05
-2.00552891818e-10
7.31351380236e-05
-1.30876447096e-10
7.31350382002e-05
-7.56430389366e-11
7.31349661887e-05
-3.1370722186e-11
7.3134912601e-05
5.54134273835e-12
7.31348824375e-05
3.15585072453e-11
7.31348589645e-05
5.39802380937e-11
7.31348417836e-05
7.37694415049e-11
7.31348290559e-05
9.17281496165e-11
7.31348189664e-05
1.08516511806e-10
7.31348102476e-05
1.24839525515e-10
7.31348020195e-05
1.41032027467e-10
7.31347936692e-05
1.57142926317e-10
7.31347847754e-05
1.72934393714e-10
7.31347750565e-05
1.87852296343e-10
7.31347644557e-05
2.0104522264e-10
7.31347531045e-05
2.11487164079e-10
7.31347411849e-05
2.1740898239e-10
7.31347285498e-05
2.15985427264e-10
7.31347157162e-05
2.04660006076e-10
7.31347032703e-05
1.78959202896e-10
7.31346922531e-05
1.34545006154e-10
7.31346765447e-05
6.79609641345e-11
7.31346532516e-05
-6.02541673322e-11
7.31346120716e-05
-3.2205756802e-10
7.31345461172e-05
-6.91623739034e-10
7.31344320887e-05
-1.22035847232e-09
7.31342269393e-05
-1.97552646129e-09
7.31338624221e-05
-3.04884709577e-09
7.31332236158e-05
-4.57403128673e-09
7.31321177099e-05
-6.74608526141e-09
7.3130222957e-05
-9.84656802098e-09
7.31270120212e-05
-1.42944107422e-08
7.31216300454e-05
-2.07169222239e-08
7.31126646506e-05
-3.00002683433e-08
7.30978116086e-05
-4.34699293834e-08
7.3073364084e-05
-6.3141237442e-08
7.30334259048e-05
-9.20813367754e-08
7.2968485334e-05
-1.3437331311e-07
7.28635276081e-05
-1.95833454431e-07
7.26953909921e-05
-2.8420379991e-07
7.24295822288e-05
-4.08771069685e-07
7.20177501461e-05
-5.78618372546e-07
7.139871393e-05
-7.98383432139e-07
7.0506943263e-05
-1.06243371655e-06
-1.34569993999e-06
6.92978404644e-05
5.07871725161e-05
5.49219860603e-11
5.29516496652e-05
5.30802030828e-11
5.59606881068e-05
2.88845973078e-11
5.92633213606e-05
1.4238600397e-11
6.24488076666e-05
2.7490506141e-12
6.52735478771e-05
-6.13556045951e-12
6.76333270219e-05
-1.20823531201e-11
6.95186621614e-05
-1.50656822538e-11
7.09734454341e-05
-1.5534414731e-11
7.20647898533e-05
-1.40866172477e-11
7.2864259861e-05
-1.13494208057e-11
7.34378106993e-05
-7.97243197027e-12
7.3841465237e-05
-4.60852466233e-12
7.41203512051e-05
-1.92139115468e-12
7.43094706266e-05
-4.84355106809e-13
7.44351984343e-05
-6.95680415969e-13
7.45169488771e-05
-2.82067014965e-12
7.45687291957e-05
-6.61200307448e-12
7.46004649023e-05
-1.14294562449e-11
7.46190700761e-05
-1.62944915234e-11
7.46292799262e-05
-2.00823538289e-11
7.46342806489e-05
-2.16997007689e-11
7.46361751963e-05
-2.06909297434e-11
7.46363219376e-05
-1.83299406269e-11
7.46355623477e-05
-1.57924013653e-11
7.46344161878e-05
-1.26313073853e-11
7.46331806958e-05
-9.03059505736e-12
7.463201488e-05
-5.06238275985e-12
7.46309924809e-05
-2.05790436848e-13
7.4630138655e-05
3.87873782474e-12
7.46294498298e-05
8.52389675396e-12
7.46289090478e-05
1.34835469137e-11
7.46284939123e-05
1.87055217497e-11
7.46281813012e-05
2.42394336445e-11
7.46279500259e-05
3.03093835496e-11
7.46277817438e-05
3.70086480483e-11
7.46276612638e-05
4.4416923795e-11
7.46275769349e-05
5.25335844961e-11
7.46275206861e-05
6.13609627513e-11
7.4627481227e-05
7.05632460236e-11
7.46274546671e-05
8.01092702386e-11
7.4627437145e-05
9.08875672833e-11
7.46274256716e-05
1.02803453377e-10
7.46274180113e-05
1.15771635368e-10
7.46274126114e-05
1.29824229344e-10
7.46274084134e-05
1.4484577204e-10
7.46274046651e-05
1.60542231656e-10
7.46274008418e-05
1.76441139943e-10
7.46273965061e-05
1.91853379507e-10
7.46273912791e-05
2.05854631444e-10
7.46273850641e-05
2.17295784958e-10
7.46273775465e-05
2.24552767054e-10
7.46273687055e-05
2.24937773378e-10
7.46273573748e-05
2.15388904016e-10
7.46273425117e-05
1.93136826038e-10
7.46273228896e-05
1.53988396679e-10
7.46272972081e-05
9.33250928147e-11
7.46272516916e-05
-1.50837227662e-11
7.46271639213e-05
-2.34184677814e-10
7.46270283576e-05
-5.56095391251e-10
7.46268057977e-05
-9.97745882698e-10
7.46264353102e-05
-1.60542890544e-09
7.46258208553e-05
-2.4346073945e-09
7.46248056557e-05
-3.55899922756e-09
7.46231347622e-05
-5.07536129239e-09
7.46203916127e-05
-7.10365833548e-09
7.46159096744e-05
-9.81272622204e-09
7.46086315655e-05
-1.34390076291e-08
7.45968212936e-05
-1.81901013617e-08
7.45776789041e-05
-2.43275902184e-08
7.4546787491e-05
-3.22498427413e-08
7.44974208187e-05
-4.27146292172e-08
7.44188456736e-05
-5.57980972603e-08
7.42946701199e-05
-7.16579000105e-08
7.41005248483e-05
-9.00584738135e-08
7.38016065879e-05
-1.09852636952e-07
7.33512728397e-05
-1.28284714771e-07
7.26930770772e-05
-1.40187573655e-07
7.17690206794e-05
-1.38377350564e-07
-1.14365683063e-07
7.05376863448e-05
5.07871714804e-05
-7.87116643398e-07