/*--------------------------------*- C++ -*----------------------------------*\
| =========                 |                                                 |
| \\      /  F ield         | OpenFOAM: The Open Source CFD Toolbox           |
|  \\    /   O peration     | Version:  2106                                  |
|   \\  /    A nd           | Website:  www.openfoam.com                      |
|    \\/     M anipulation  |                                                 |
\*---------------------------------------------------------------------------*/
FoamFile
{
    version     2.0;
    format      ascii;
    arch        "LSB;label=32;scalar=64";
    class       volScalarField;
    location    "0.24";
    object      p;
}
// * * * * * * * * * * * * * * * * * * * * * * * * * * * * * * * * * * * * * //

dimensions      [0 2 -2 0 0 0 0];

internalField   nonuniform List<scalar> 
11200
(
150.26376136
147.335159543
146.221308566
145.693977184
145.326647377
145.031869006
144.770225345
144.521687149
144.27716912
144.032101557
143.783787261
143.530471491
143.270922189
143.004203723
142.729549184
142.446285117
142.153785679
141.851444866
141.53866384
141.214854396
140.879392808
140.531630021
140.170907665
139.796557867
139.407895031
139.004217827
138.584810026
138.148941175
137.695867333
137.224831704
136.735065219
136.225787043
135.696204705
135.145514308
134.572901209
133.977541181
133.358600266
132.715234972
132.046592697
131.351812147
130.630023652
129.880349375
129.101903503
128.293792333
127.455114216
126.584959331
125.682409228
124.746536083
123.776401595
122.771055424
121.729533063
120.650852988
119.53401294
118.377985117
117.181710004
115.944088527
114.663972131
113.340150277
111.971334649
110.556139297
109.093055626
107.58042081
106.016377472
104.398824972
102.725353351
100.993157464
99.1989268629
97.3387015041
95.4076772421
93.3999393235
91.3080986026
89.1227954766
86.8318317439
84.4190211233
81.8622783063
79.1299444784
76.1744219516
72.9231401071
69.2223988298
64.4591362649
148.470719443
147.112545287
146.321573685
145.821559208
145.43057087
145.106688311
144.82216723
144.5575651
144.30207738
144.04955562
143.796172455
143.539414244
143.277543887
143.009284865
142.733636696
142.449764518
142.156930904
141.854453002
141.541672346
141.217927084
140.882566957
140.534916473
140.174331891
139.800145051
139.411659929
139.008169475
138.588954622
138.15328309
137.700409646
137.229576511
136.740013621
136.230938584
135.701557065
135.151068819
134.578661153
133.983509852
133.364780689
132.721630126
132.053205578
131.358645827
130.637081347
129.887634519
129.109419845
128.301544052
127.463106063
126.593196797
125.690898755
124.755285323
123.785419726
122.780353535
121.739124621
120.660754425
119.544244374
118.388571241
117.192681193
115.955482219
114.675834524
113.352538435
111.984319137
110.569807587
109.107516682
107.595811223
106.032867503
104.416622659
102.744709101
101.014385921
99.2224376653
97.365026979
95.4375144738
93.4342154194
91.3480609583
89.170094803
86.888769292
84.4889486405
81.9502377005
79.244128233
76.3298218666
73.1494830387
69.6003178112
65.4874436825
147.475529188
146.821328732
146.268972888
145.831354997
145.45973112
145.137629398
144.848529634
144.578295917
144.317833198
144.061352563
143.804968977
143.546000685
143.282535589
143.013146667
142.736712793
142.452305307
142.159114544
141.856401888
141.543469024
141.219639079
140.884249948
140.53666202
140.176131273
139.802004016
139.413588134
139.010174016
138.591040295
138.155453605
137.702668409
137.23192716
136.74246067
136.233488805
135.704220629
135.153848721
134.581555295
133.986518524
133.367905322
132.72487267
132.056568834
131.362133431
130.640697793
129.891385227
129.113311336
128.305584151
127.467304164
126.597564205
125.695449106
124.760035106
123.790388923
122.785566418
121.744610742
120.6665498
119.550392931
118.395126585
117.199708762
115.963061903
114.684063904
113.36153693
111.99423315
110.580816741
109.119840709
107.609718175
106.048685334
104.434773053
102.765744126
101.039005131
99.2515143432
97.3996731953
95.4791675755
93.4847589385
91.4099976942
89.246821062
86.9851341696
84.612021188
82.1107610203
79.4594930769
76.630242628
73.5913918517
70.3069593156
66.7539165916
146.925768015
146.562386636
146.162488474
145.793497803
145.455880797
145.147777973
144.862414207
144.591709806
144.329337362
144.070669862
143.812289228
143.551663868
143.286893899
143.016512001
142.739342051
142.454401491
142.160833971
141.857863273
141.544762245
141.220830949
140.885378429
140.537714497
140.177197923
139.803105537
139.414726596
139.011353362
138.592264222
138.156724574
137.703987759
137.233295217
136.743876591
136.234949948
135.705722622
135.155392915
134.583150665
133.988170327
133.369619794
132.726656796
132.058428621
131.364075347
130.642729105
129.893514218
129.115547729
128.307939532
127.469792454
126.600202223
125.698257245
124.763038139
123.793616981
122.789056111
121.748406511
120.670705648
119.554974569
118.400214055
117.205399725
115.969475863
114.691347468
113.369869964
112.003836448
110.59196138
109.132863113
107.625044716
106.066844627
104.456404082
102.791621468
101.070097998
99.2890584048
97.445250692
95.5348218542
93.5531620583
91.4947143705
89.3527494207
87.1190356113
84.7835310427
82.3341466455
79.7567838588
77.0366965546
74.1641762229
71.1428190625
68.0098012866
146.591720113
146.359924594
146.058512046
145.747534704
145.442694784
145.150670884
144.871694752
144.602568119
144.339607351
144.079522277
143.819552444
143.557460393
143.291453557
143.020082818
142.74215144
142.456642419
142.162663093
141.859404226
141.546110483
141.222059242
140.886545607
140.538873237
140.17834577
139.804252589
139.415896524
139.012561216
138.593519818
138.158035315
137.705359706
137.234733871
136.745387545
136.236539472
135.707397488
135.157158239
134.585007803
133.990122468
133.371667686
132.72880139
132.060674185
131.366426583
130.645193211
129.896100714
129.118268579
128.310809486
127.472829525
126.603428284
125.701698791
124.766727255
123.797592476
122.793365088
121.753106595
120.675867103
119.560683033
118.406573953
117.21253835
115.977547954
114.700539878
113.380410622
112.016002723
110.606096292
109.149389141
107.644468829
106.089798803
104.483684382
102.824231944
101.109299646
99.3364400307
97.5028312093
95.6051937044
93.6396933759
91.6018335785
89.4863498054
87.2871336942
84.9972665906
82.6093277234
80.1163077688
77.5140100602
74.8068763456
72.0162665332
69.1928768056
146.38832768
146.212425601
145.971230746
145.703904784
145.426717533
145.150078864
144.878388718
144.611886554
144.349120801
144.088111357
143.826823281
143.563389491
143.296184483
143.023817391
142.745095285
142.458980433
142.164550762
141.860966854
141.547445954
141.223242248
140.887632323
140.539904284
140.179348714
139.805255858
139.416915119
139.013605716
138.594598151
138.159153363
137.70652185
137.235943243
136.746646289
136.237848897
135.708758335
135.158571378
134.586474739
133.991645729
133.373252863
132.730455878
132.062406056
131.368247758
130.647116474
129.898139572
129.120438625
128.313128877
127.475319834
126.606115635
125.704614955
124.769910902
123.80109081
122.797235609
121.75741865
120.680704836
119.566148637
118.412791609
117.219659229
115.985757169
114.710067409
113.391537486
112.029076401
110.621535865
109.167699383
107.666274219
106.115877038
104.514991843
102.861951571
101.154906426
99.3917856098
97.5702555425
95.6876763901
93.7410624823
91.7270578332
89.641950952
87.481775727
85.2425911307
82.921112509
80.5159885201
78.0302873691
75.4761642782
72.8805692319
70.2906018539
146.265210957
146.109603337
145.903301525
145.666739433
145.411264322
145.147985001
144.883372027
144.619863726
144.357730845
144.096145526
143.833773717
143.569138883
143.300811221
143.027482156
142.747979487
142.461255606
142.166365559
141.86244349
141.548681361
141.224311244
140.888591296
140.540795074
140.180203724
139.80609968
139.417764057
139.014471099
138.59548846
138.160074891
137.707479378
137.236940695
136.7476872
136.238936777
135.709896945
135.159765219
134.58772952
133.992968061
133.374649777
132.731935227
132.063976594
131.369917449
130.648893185
129.900034995
129.122468869
128.315314368
127.477685765
126.608692492
125.707439607
124.773028011
123.804554479
122.801111416
121.761786264
120.685661293
119.571812176
118.41930631
117.227200508
115.994537622
114.72034213
113.403618503
112.043342542
110.638452775
109.187848536
107.690370009
106.144788089
104.549790262
102.903964792
101.205782516
99.4535791871
97.6455410808
95.7796986062
93.853937489
91.8660436856
89.8138113289
87.6952614249
85.5090618192
83.2552818836
80.9366800283
78.5608066136
76.1432623147
73.7109262457
71.3031588259
146.191131343
146.041121272
145.854365773
145.638260638
145.398554963
145.145734264
144.887097857
144.62636051
144.364994769
144.103074217
143.83985797
143.574222571
143.304927479
143.030751424
142.750550861
142.463275915
142.167965066
141.863730957
141.549744018
141.225217055
140.889392075
140.541529712
140.180900996
139.806780342
139.418444
139.015161234
138.596196934
138.160807812
137.708241498
137.237735967
136.748519181
136.239808955
135.710812992
135.160729049
134.588745211
133.994040171
133.375783701
132.733136821
132.065252691
131.371277793
130.650353705
129.901613739
129.124184588
128.317189315
127.479746912
126.610972675
125.709978767
124.775874674
123.807767561
122.804762609
121.765963249
120.69047047
119.577382665
118.425794943
117.234798065
116.003477065
114.730909363
113.416161519
112.058284771
110.656311663
109.209250695
107.716082183
106.175751723
104.587162513
102.949170213
101.26057947
99.5201448704
97.726580585
95.8785853044
93.9748942903
92.0143755252
89.9961991788
87.9201200823
85.7869512846
83.5993071634
81.362722451
79.0872356889
76.7894548304
74.4940643763
72.2330770658
146.148855032
145.999407441
145.822992115
145.619254394
145.389722447
145.144015017
144.889656172
144.631019089
144.370313731
144.108221058
143.844425142
143.578068091
143.308058345
143.033247226
142.752517962
142.464822333
142.169188276
141.864713229
141.550551823
141.22590247
140.889994983
140.54208011
140.181421171
139.807287553
139.418948059
139.015671949
138.596721014
138.161350228
137.708806249
137.238326497
136.749138664
136.240460562
135.711500106
135.161455441
134.589515213
133.994858938
133.376657482
132.734073646
132.066262976
131.372374053
130.651547213
129.902919411
129.125622381
128.318783569
127.481527036
126.612974281
125.712245044
124.77845806
123.810731759
122.808184906
121.769937171
120.695109664
119.582825319
118.432209072
117.242387859
116.012490369
114.741646523
113.428987018
112.073643839
110.674747882
109.23142778
107.742809896
106.20801841
104.626176567
102.996411308
101.317862316
99.589699085
97.8111503949
95.9815533673
94.1004353236
92.1676418154
90.1835398228
88.1493253334
86.0674905983
83.9424831234
81.7815999911
79.5960942031
77.4023811659
75.2225105091
73.0826670522
146.129578635
145.979700884
145.807738242
145.609803357
145.385242852
145.143124836
144.890990957
144.63348346
144.373157886
144.110998339
143.846909523
143.580175667
143.309787147
143.03463645
142.753622883
142.465700227
142.169891401
141.865285999
141.551030306
141.226315034
140.890363433
140.542420913
140.181746553
139.807606436
139.419268022
139.015997853
138.597056784
138.161699078
137.709170966
137.23870975
136.749543106
136.240889049
135.711955865
135.161942246
134.59003758
133.995422341
133.377268566
132.734740377
132.06699447
131.373180779
130.652444086
129.903923722
129.126754704
128.320068788
127.482995381
126.614662485
125.714197715
124.780729347
123.813387396
122.811304713
121.773618111
120.699469483
119.58800696
118.43838608
117.249771022
116.02133594
114.752266364
113.441760108
112.089029735
110.693306476
109.253838404
107.769898849
106.240791409
104.665858253
103.044493528
101.376163029
99.6604341904
97.8970203896
96.0858469247
94.2271512466
92.3216261549
90.370640712
88.3765369108
86.3430689047
84.2759453664
82.183513196
80.0774990085
77.9736612624
75.8916958074
73.8535336227
146.129581252
145.979716979
145.807765283
145.609839627
145.385287581
145.143177184
144.891049999
144.633548369
144.373227963
144.111073009
143.846988325
143.580258243
143.309873231
143.034725858
142.753715503
142.465796011
142.169990354
141.865388182
141.551135826
141.226424053
140.890476174
140.542537677
140.181867731
139.807732537
139.419399739
139.016135917
138.597202117
138.161852818
137.709334506
137.238884637
136.749731355
136.241093116
135.712178723
135.162187505
134.590309611
133.995726427
133.377611088
132.735129078
132.067438918
131.373692907
130.653037918
129.904616283
129.127566761
128.321025594
127.484127604
126.616007363
125.715800454
124.782644834
123.81568226
122.814059833
121.77693165
120.703460588
119.592820246
118.444197062
117.256792672
116.029826568
114.762539105
113.454194647
112.104087443
110.711547403
109.275941567
107.7966877
106.273264727
104.705226812
103.092223946
101.434028419
99.7305727562
97.9820067054
96.1887765386
94.3517340052
92.4723176196
90.5528071789
88.5963254991
86.6074987453
84.5928434309
82.5612626799
80.5245454131
78.4977133194
76.498674513
74.5465281423
146.148862936
145.999456099
145.82307384
145.61936395
145.389857488
145.144172829
144.889833943
144.63121435
144.370524403
144.108445424
143.844661828
143.578316033
143.308316754
143.033515554
142.752795877
142.465109693
142.169485108
141.865019715
141.550868292
141.226229405
140.890333054
140.542430203
140.18178443
139.807665523
139.419342717
139.016085481
138.597156138
138.161810265
137.709295236
137.238849311
136.749701268
136.2410702
135.712165577
135.162187455
134.590326819
133.995766033
133.377679397
132.735233793
132.067589413
131.373900568
130.653316585
129.90498281
129.128041653
128.321633771
127.484899331
126.616979388
125.717017402
124.784160874
123.81756314
122.816385334
121.779798576
120.706986383
119.597147371
118.449498294
117.26327754
116.037749156
114.772207558
113.465982761
112.118446135
110.729020977
109.297195427
107.822521942
106.304644147
104.743313733
103.138415924
101.490007411
99.7983798428
98.0641114282
96.2880884726
94.4716883712
92.6168792375
90.7263667956
88.8041190907
86.8553918673
84.8871781375
82.9086330352
80.9314325
78.9699849004
77.0410124564
75.1619619475
146.19114472
146.041203613
145.85450383
145.638445315
145.398782147
145.145999264
144.887395895
144.62668744
144.365347122
144.103449143
143.840253196
143.574636344
143.305358503
143.031198804
142.751014059
142.46375471
142.168459515
141.864241373
141.550270953
141.225761324
140.889954814
140.542112401
140.181505453
139.807409198
139.419100126
139.015848398
138.596919644
138.161571519
137.709052827
137.238602964
136.749451615
136.24081868
135.711914395
135.161939598
134.590086126
133.995537321
133.377468629
132.735048294
132.067438138
131.373794436
130.6532689
129.905009757
129.128162925
128.321873316
127.485286254
126.617549053
125.717812757
124.78523406
123.81897743
122.818217498
121.78214174
120.709953488
119.60087534
118.454153079
117.269060198
116.044903169
114.78102763
113.476825693
112.131744066
110.745295141
109.317069225
107.846754559
106.334151137
104.779199129
103.182013591
101.542904908
99.8624239384
98.1414370477
96.3812670767
94.5837256232
92.7512662968
90.8871513393
88.9956889266
87.0824816889
85.1547492556
83.2216647757
81.2946709299
79.3877169943
77.5169398239
75.6992600085
146.265230174
146.1097215
145.90349898
145.667002624
145.411587048
145.14836038
144.883793196
144.620324814
144.358226989
144.096672764
143.834328905
143.569719608
143.301415705
143.028109177
142.748628313
142.461925937
142.167057473
141.86315741
141.54941803
141.225071755
140.889377181
140.541608409
140.181047145
139.806976596
139.418678489
139.015428153
138.596494315
138.16113701
137.708606823
137.238144505
136.748980808
136.24033653
135.711422715
135.161440993
134.589584033
133.995036104
133.376973725
132.734566438
132.066977629
131.373365458
130.652883895
129.904683873
129.127914588
128.321724925
127.485265035
126.617688095
125.71815226
124.785822829
123.819874698
122.819495131
121.7838869
120.712271846
119.603894958
118.458029103
117.273980505
116.051095136
114.788766225
113.486443258
112.143642565
110.759959543
109.335084228
107.868820941
106.361108355
104.812046062
103.221925302
101.59128878
99.9209697346
98.2121501622
96.4664412014
94.6859851564
92.8735804145
91.0328269951
89.1683059858
87.285791595
85.3925133497
83.497455456
81.611698288
79.7488131415
77.9248140687
76.1571158296
146.388353401
146.212583285
145.971492788
145.70425226
145.427141666
145.15057027
144.878938306
144.612486697
144.349765262
144.088795101
143.827542348
143.564140854
143.296965927
143.024627398
142.745932947
142.459845365
142.16544302
141.861886863
141.548394458
141.224220302
140.888641252
140.540946012
140.180427704
139.806377956
139.418084918
139.014828974
138.595882282
138.160507431
137.70795691
137.237472892
136.748287232
136.239621631
135.710687942
135.160688574
134.588817008
133.99425837
133.376190114
132.733782896
132.066201465
131.372605675
130.652151597
129.903992708
129.127281261
128.321169804
127.484812895
126.617369032
125.718002806
124.785887318
123.820206916
122.820160313
121.784964113
120.713856881
119.606103816
118.461002177
117.277887618
116.056141642
114.79520036
113.494564668
112.153812357
110.77261272
109.350743662
107.888112262
106.384779962
104.840993197
103.257218436
101.634183963
99.9729329445
98.2748871914
96.5419214078
94.7764484616
92.9815232107
91.1609630493
89.3194912393
87.4628981713
85.598244747
83.7341242847
81.8810509868
80.0521060446
78.2633223831
76.5333778462
146.591753022
146.36012666
146.058845157
145.747973461
145.443227151
145.151284551
144.872378253
144.603312071
144.340404211
144.080366036
143.82043842
143.558385049
143.292414347
143.02107806
142.743180219
142.457704484
142.163758732
141.8605341
141.547275425
141.223260298
140.887784321
140.54015075
140.179664115
139.805625136
139.417327209
139.014055786
138.595086472
138.159684326
137.707103637
137.236587898
136.747369974
136.238672387
135.70970773
135.159679147
134.587780889
133.993198965
133.375111832
132.732691246
132.065103153
131.371508733
130.65106561
129.9029293
129.126254641
128.320197371
127.483915953
126.616573622
125.71734068
124.785397106
123.819935543
122.820164745
121.785313486
120.714635034
119.607412342
118.462964107
117.280651848
116.059888068
114.800145207
113.500968373
112.161988529
110.782938257
109.363670757
107.904182438
106.404639467
104.865409448
103.287098827
101.670597224
100.01712793
98.3283073263
96.6062141644
94.8534660937
93.0733046807
91.2696875783
89.4473885876
87.6121042709
85.7705854734
83.9308255071
82.1024446321
80.2975962955
78.5317961196
76.8249000677
146.925808134
146.562636757
146.162895169
145.79402823
145.456518964
145.148508167
144.86322248
144.592585072
144.33027087
144.071654734
143.813320176
143.55273696
143.288006393
143.017662241
142.740529419
142.455626406
142.162097905
141.859168682
141.546112088
141.222229069
140.886833925
140.539243043
140.178772346
139.804729126
139.416413176
139.013114239
138.594111021
138.158670869
137.706049618
137.235491816
136.74623113
136.237490739
135.708483734
135.158413676
134.586475247
133.991855077
133.373732536
132.731280386
132.063665744
131.370051436
130.649597093
129.901459813
129.124796575
128.318765746
127.482528935
126.615253187
125.716113449
124.784295374
123.818998561
122.819440118
121.784858634
120.71451934
119.607719684
118.463795822
117.282130251
116.062160885
114.803392274
113.5054066
112.167878599
110.790593061
109.37346504
107.916563636
106.420139967
104.884660028
103.310842936
101.699705402
100.052612265
98.3713334246
96.6581064527
94.915703436
93.1475000345
91.3575426891
89.5506072535
87.7322447072
85.9088186157
84.0875448922
82.276724031
80.4867345261
78.7307889656
77.0275349026
147.475581335
146.82164107
146.26946319
145.831982427
145.460476003
145.138472734
144.849455262
144.579291289
144.318888506
144.062460113
143.806122799
143.547196221
143.283769439
143.014416406
142.738016868
142.453643075
142.160486627
141.857811033
141.544920354
141.221139116
140.885799196
140.538230297
140.177753442
139.803688404
139.415339722
139.012000388
138.592951647
138.157462691
137.704790851
137.234181661
136.744869516
136.236078213
135.707021425
135.156903266
134.584918923
133.990255164
133.372090456
132.729598859
132.061948388
131.368302389
130.647821106
129.899663791
129.122989334
128.316958224
127.480734647
126.613488751
125.714399192
124.78265604
123.817464072
122.818046707
121.783650678
120.713550807
119.60705598
118.463516106
117.282330179
116.062955567
114.804918886
113.507830659
112.171399217
110.795449044
109.37994211
107.925002818
106.43094712
104.898316307
103.327915807
101.720859387
100.078618657
98.4030773434
96.6965886252
94.9620382084
93.2028994954
91.4232823388
89.6279593789
87.8223591294
86.0124981588
84.204763217
82.4058127014
80.6232017671
78.8640389758
77.1370039492
148.470819006
147.113003137
146.322256563
145.822414285
145.431575025
145.107820759
144.823410967
144.558907059
144.303507366
144.051065593
143.797756055
143.54106637
143.279260296
143.011061759
142.735470323
142.451650787
142.158864853
141.856427978
141.543682901
141.219980943
140.884662628
140.537078412
140.176576336
139.802473013
139.41407675
139.01068391
138.591577386
138.156025332
137.703286782
137.232608787
136.743226357
136.23436362
135.705234524
135.15504347
134.582986016
133.98824985
133.370016348
132.727458427
132.059744239
131.366038042
130.64550121
129.897293534
129.120574923
128.314507268
127.478256479
126.610994783
125.711903361
124.780175356
123.815019345
122.815663269
121.781358996
120.711387652
119.605065796
118.461752601
117.280858276
116.061854034
114.804283896
113.507776732
112.172063664
110.796996472
109.382569342
107.928944344
106.436480999
104.905770471
103.337674742
101.733371016
100.094400877
98.4227220319
96.7207613279
94.9914928723
93.2384644867
91.4658443849
89.6784372969
87.881660513
86.0814107971
84.2835541635
82.4936193566
80.7163670645
78.9465983477
77.1547697732
150.263927572
147.335829872
146.222302087
145.695231696
145.328132644
145.033560402
144.772104287
144.523740084
144.27938616
144.034475659
143.786313716
143.533147608
143.27374718
143.00717874
142.732677433
142.449571909
142.157238336
141.855072058
141.542470501
141.218826185
140.883533691
140.535953227
140.175415856
139.801256318
139.412792454
139.009325044
138.590140248
138.154513057
137.701701078
137.230949889
136.741494533
136.232559297
135.703358199
135.153095679
134.580967294
133.986160448
133.367855329
132.725225909
132.057440966
131.363665109
130.643060093
129.89478633
129.118004448
128.311877144
127.475571266
126.608260159
125.709126331
124.777364509
123.812185153
122.812818497
121.778519215
120.708571791
119.602296786
118.459058148
117.278271738
116.059415336
114.802040475
113.505786228
112.170395384
110.795733391
109.381810606
107.928808214
106.437108297
104.907328476
103.340361471
101.737419611
100.100084406
98.4303634614
96.7307530494
95.0042589619
93.2544864113
91.4856724882
89.7027062688
87.9111065353
86.1169200968
84.3266461773
82.5467081662
80.7818977687
79.0117749689
77.1118207894
57.0644722528
53.5124177757
51.1210159427
49.1637604085
47.4920301774
46.0356527758
44.7506247244
43.6072019601
42.5836620781
41.6632028334
40.8323627927
40.0800872462
39.397135215
38.7756812889
38.2090331703
37.691422325
37.2178438991
36.7839308823
36.3858532058
36.0202357758
35.6840913456
35.3747651586
35.0898889185
34.8273426705
34.5852227831
34.3618149133
34.1555711622
33.9650905353
33.7891022587
33.6264511367
33.4760848493
33.337042803
33.208446253
33.0894893517
32.979430967
32.8775872235
32.7833239345
32.6960484936
32.6152051536
32.5403175749
32.4711382893
32.4073226278
32.3483441101
32.293788605
32.2432767574
32.1965013499
32.1531896767
32.1130992529
32.0759914691
32.0416299226
32.0097977282
31.9803088091
31.9529815534
31.9276438036
31.9041303505
31.8822933748
31.8619970129
31.8431152355
31.8255311454
31.8091372168
31.7938343845
31.7795306901
31.7661411509
31.7535871106
31.7417960913
31.730701331
31.7202411361
31.7103587596
31.7010020593
31.692123096
31.6836778296
31.6756257397
31.6679296409
31.6605556633
31.6534728708
31.6466528497
31.6400695836
31.6336993784
31.6275204052
31.6215130874
31.615659385
31.6099425325
31.6043470045
31.5988588892
31.5934663876
31.5881580742
31.5829236616
31.5777541371
31.5726409
31.5675761324
31.5625541939
31.5575796053
31.5526386713
31.5477336803
31.5428424092
31.5379769659
31.5331479986
31.5283452826
31.5235482738
31.5187506295
31.513948548
31.5091388279
31.5043183437
31.4994840369
31.4946334268
31.4897643332
31.4848746505
31.47996249
31.4750264333
31.4700653268
31.4650781942
31.4600643097
31.455023434
31.44995546
31.4448607501
31.4397406098
31.4345972648
31.429433097
31.424251246
31.4190568181
31.4138564206
31.4086578243
31.4034710586
31.3983084762
31.393183987
31.3881138585
31.383111441
31.3782017413
31.3733533709
31.3687742999
31.3647811431
31.3612082923
31.357857405
31.3549336454
31.3527166414
31.3511954004
31.3505227944
31.3508428733
31.3523851826
31.3554839259
31.3599581043
31.3659924099
31.3734410518
31.3816081251
31.3884166359
31.3888989137
31.3717346137
31.3139667222
31.1730515675
30.8774376692
30.3211348975
29.3709627359
27.8948365206
25.801732096
23.0677844884
19.7507190112
15.9693200403
11.6902651057
6.638112666
1.58175169927
60.2459126906
56.193043488
53.4811220811
51.3289649317
49.5273640844
47.9779076618
46.6223592706
45.4234434598
44.3549352447
43.3971455756
42.5346813438
41.755150979
41.0483633105
40.405804138
39.8202727949
39.2856197563
38.7965505703
38.3484749443
37.9373877461
37.5597751381
37.2125378927
36.8929292667
36.598505049
36.3270805509
36.0766972485
35.8455932653
35.6321785231
35.4350155983
35.2528007015
35.0843490414
34.9285823987
34.7845162997
34.6512514794
34.527964775
34.4139017436
34.3083711154
34.2107392401
34.1204274674
34.0369065354
33.959672921
33.8881766618
33.8219889444
33.7607183953
33.7040277461
33.6515835706
33.603070082
33.5581868944
33.5166515118
33.4782057222
33.4426133671
33.4096518696
33.379119296
33.3508171047
33.3245709293
33.3002229279
33.2776225318
33.256628595
33.2371111134
33.2189508274
33.2020366407
33.1862615565
33.1715288234
33.1577495777
33.1448416578
33.1327299926
33.1213442026
33.1106208945
33.1005002181
33.090928109
33.0818549979
33.0732340846
33.0650237904
33.0571853816
33.0496826788
33.0424845197
33.0355603906
33.0288834906
33.0224291023
33.0161742109
33.0100988996
33.0041841456
32.9984131904
32.9927743219
32.9872484435
32.9818237396
32.9764878315
32.9712300147
32.9660403062
32.9609102587
32.9558315091
32.9507943219
32.9457860463
32.9408030568
32.9358468702
32.9309035033
32.9259743632
32.9210498
32.9161229008
32.9111946258
32.9062672839
32.9013369259
32.8964006406
32.8914567807
32.8865012535
32.8815319997
32.8765476154
32.8715451539
32.8665228758
32.8614799045
32.8564139004
32.8513242725
32.846210516
32.8410709531
32.8359059559
32.8307157362
32.8255012407
32.8202631883
32.8150061045
32.8097311847
32.8044445622
32.799154052
32.7938668471
32.7885938327
32.7833525095
32.7781568261
32.7730305332
32.7680032566
32.7631211779
32.7584035678
32.7539282322
32.7498173185
32.7458988618
32.7424939215
32.7395629632
32.7376024154
32.7364084458
32.7361710291
32.7370753384
32.7393257235
32.7431823635
32.7486994845
32.75597578
32.76478827
32.7742291483
32.78170984
32.7812941532
32.7596869226
32.6906714767
32.5267287077
32.1898795553
31.567875449
30.5244118688
28.9304584724
26.7048552967
23.8356043715
20.3848617899
16.4694415715
12.0716505016
6.9298090759
1.71622076696
62.4534333616
58.5199162242
55.6528522764
53.3691582296
51.4675765588
49.8416212903
48.4262328066
47.1793525519
46.0715068136
45.0807790294
44.1902205445
43.3863333503
42.6581272075
41.9965026655
41.3938252297
40.8436198411
40.3403447158
39.8792193194
39.4560901681
39.0673260136
38.7097333347
38.380488341
38.077082858
37.7972783626
37.5390700498
37.3006559987
37.0804110085
36.8768662618
36.6886901161
36.5146724099
36.3537118775
36.2048031204
36.0670272619
35.9395427456
35.821577196
35.7124209151
35.6114196548
35.5179695193
35.4315128928
35.3515437715
35.2775845494
35.2090038233
35.145493901
35.0867704618
35.0324599462
34.9822209767
34.9357439537
34.8927432537
34.8529545777
34.8161312845
34.7820441057
34.7504834292
34.72124813
34.694147733
34.6690170839
34.6457005569
34.62405224
34.6039364713
34.5852261273
34.5678032617
34.5515632747
34.5364070506
34.52224272
34.5089850012
34.4965559733
34.4848823898
34.4738983824
34.4635418482
34.453756357
34.4444906468
34.4356958238
34.4273285634
34.4193487692
34.411718731
34.4044057511
34.3973783547
34.3906084052
34.3840702673
34.377739807
34.371596223
34.3656195613
34.3597910965
34.3540916036
34.3485094084
34.3430313259
34.337644753
34.3323385717
34.3271024059
34.3219259998
34.3167993843
34.3117072738
34.3066499528
34.3016269992
34.2966328906
34.2916577041
34.2866986485
34.2817518974
34.2768127252
34.2718740305
34.2669336314
34.2619874445
34.2570314454
34.2520639836
34.2470813338
34.2420809043
34.237061395
34.2320198468
34.2269544106
34.2218643261
34.2167471443
34.2116022592
34.206429414
34.2012272874
34.1959958707
34.1907354061
34.1854476156
34.1801328572
34.174795528
34.1694385278
34.1640672159
34.1586896386
34.1533150183
34.147953471
34.1426244087
34.1373446503
34.1321388474
34.1270407418
34.122094176
34.1173279489
34.1127850682
34.108565919
34.1047508769
34.1014833351
34.0989347938
34.0968462454
34.0957230492
34.0957452898
34.0970780292
34.0999022111
34.1044321264
34.1108090952
34.119084991
34.1289392776
34.1392205351
34.1467903245
34.1446691457
34.1175905313
34.0360749608
33.8478522575
33.4690280161
32.7819623988
31.6481985926
29.9421999045
27.5919010685
24.5953929689
21.0174344369
16.971571943
12.4549649981
7.22071738119
1.84834212009
64.257684379
60.5329547896
57.6290923288
55.2741892181
53.3045200146
51.6207302959
50.1576264313
48.8712821508
47.7303982844
46.7115942465
45.7968065334
44.9717030287
44.2246727219
43.5461532428
42.9281635594
42.3639674786