/*--------------------------------*- C++ -*----------------------------------*\
| =========                 |                                                 |
| \\      /  F ield         | OpenFOAM: The Open Source CFD Toolbox           |
|  \\    /   O peration     | Version:  2106                                  |
|   \\  /    A nd           | Website:  www.openfoam.com                      |
|    \\/     M anipulation  |                                                 |
\*---------------------------------------------------------------------------*/
FoamFile
{
    version     2.0;
    format      ascii;
    arch        "LSB;label=32;scalar=64";
    class       surfaceScalarField;
    location    "0.24";
    object      phi;
}
// * * * * * * * * * * * * * * * * * * * * * * * * * * * * * * * * * * * * * //

dimensions      [0 3 -1 0 0 0 0];

oriented        oriented;

internalField   nonuniform List<scalar> 
22100
(
3.38461203553e-05
1.6153879644e-05
2.24572098764e-05
1.13889104169e-05
1.6258552976e-05
6.19865684714e-06
1.27977759692e-05
3.46077695813e-06
1.0804642062e-05
1.9931338594e-06
9.6045890041e-06
1.200053012e-06
8.85132121263e-06
7.53267747287e-07
8.36435236905e-06
4.86968802093e-07
8.04433446311e-06
3.20017867156e-07
7.83283964788e-06
2.11494779515e-07
7.69339646819e-06
1.39443147795e-07
7.60223956828e-06
9.11568722642e-08
7.54347677512e-06
5.87627700884e-08
7.50633984999e-06
3.71369069763e-08
7.4835003312e-06
2.28395057843e-08
7.46997949875e-06
1.35208250536e-08
7.46241486688e-06
7.5646300865e-09
7.45854682771e-06
3.86804404554e-09
7.45682784888e-06
1.71899129993e-09
7.4564212248e-06
4.06643710975e-10
7.45677106349e-06
-3.49810549877e-10
7.4574572742e-06
-6.86174617137e-10
7.45821566154e-06
-7.58343628988e-10
7.45894102365e-06
-7.25310905268e-10
7.45958540614e-06
-6.44324380216e-10
7.46012942838e-06
-5.43957468277e-10
7.46057164797e-06
-4.42147843878e-10
7.46092052196e-06
-3.48795128489e-10
7.46118895902e-06
-2.68351614314e-10
7.46139104737e-06
-2.019969413e-10
7.46154016387e-06
-1.49020340282e-10
7.46164801182e-06
-1.0774828629e-10
7.46172432468e-06
-7.62103871179e-11
7.46177723428e-06
-5.280489317e-11
7.46181069116e-06
-3.33496438356e-11
7.461829687e-06
-1.88847515497e-11
7.46183898686e-06
-9.18437046164e-12
7.46184202375e-06
-2.91696252595e-12
7.46184073668e-06
1.41039004253e-12
7.46183625957e-06
4.60302076699e-12
7.46182952315e-06
6.86454723445e-12
7.4618211299e-06
8.52270461872e-12
7.4618114466e-06
9.81294676534e-12
7.46180064481e-06
1.09304418655e-11
7.46178872861e-06
1.20424768629e-11
7.46177557645e-06
1.32739757558e-11
7.4617609639e-06
1.47274957022e-11
7.46174456941e-06
1.65002962164e-11
7.4617259622e-06
1.87005011792e-11
7.46170460168e-06
2.14363000578e-11
7.46167987266e-06
2.4781103036e-11
7.46165106685e-06
2.88272153006e-11
7.46161738508e-06
3.36676798017e-11
7.4615779589e-06
3.93729992649e-11
7.46153190361e-06
4.59617996819e-11
7.4614783956e-06
5.33780991229e-11
7.46141671398e-06
6.15238529778e-11
7.46134670974e-06
6.98288633248e-11
7.46126908603e-06
7.74410545395e-11
7.4611862477e-06
8.26598465275e-11
7.46110433595e-06
8.17482812029e-11
7.46103568785e-06
6.85090265174e-11
7.46098816188e-06
4.74215102033e-11
7.46098072653e-06
7.37754222192e-12
7.46104925764e-06
-6.8529566645e-11
7.46125197829e-06
-2.0264637927e-10
7.46168335547e-06
-4.31223460271e-10
7.46249347609e-06
-8.09898128025e-10
7.46391773316e-06
-1.4239827639e-09
7.46631194849e-06
-2.39389867031e-09
7.47012629112e-06
-3.81398140035e-09
7.47657175898e-06
-6.44506503632e-09
7.48734315663e-06
-1.0770978254e-08
7.50552526515e-06
-1.81817074491e-08
7.53873132247e-06
-3.32056938058e-08
7.60799746813e-06
-6.92658148588e-08
7.77479215504e-06
-1.66794380097e-07
8.23007884357e-06
-4.55286398667e-07
9.6989878999e-06
-1.46890869172e-06
-5.45699585094e-06
1.51559839843e-05
5.02175948695e-05
1.59362847123e-05
4.42441116212e-05
1.73623935637e-05
3.77795014801e-05
1.26632668985e-05
3.2646143971e-05
8.59413438099e-06
2.89380918173e-05
5.70118592956e-06
2.63596213773e-05
3.77852337305e-06
2.45875169283e-05
2.52537212163e-06
2.33734748393e-05
1.70101082164e-06
2.25435257713e-05
1.14996687169e-06
2.1978217082e-05
7.76803411763e-07
2.15955145662e-05
5.22145613953e-07
2.13387380292e-05
3.47933367582e-07
2.11684965484e-05
2.29004217787e-07
2.1057338994e-05
1.48294438252e-07
2.09861511497e-05
9.40273379278e-08
2.09416788564e-05
5.79931169328e-08
2.09147971435e-05
3.44463535388e-08
2.0899298161e-05
1.93670509026e-08
2.08910745142e-05
9.94267540628e-09
2.08872743652e-05
4.20684497405e-09
2.08862054864e-05
7.19134308343e-10
2.08864513097e-05
-9.31918903775e-10
2.08873228478e-05
-1.62978938572e-09
2.08884624501e-05
-1.86480798817e-09
2.08896358849e-05
-1.81764122037e-09
2.08907189874e-05
-1.62692919914e-09
2.08916567011e-05
-1.37971859996e-09
2.08924343549e-05
-1.12629440859e-09
2.08930597148e-05
-8.93546903569e-10
2.08935519982e-05
-6.94107446971e-10
2.08939359834e-05
-5.32825895809e-10
2.08942376594e-05
-4.09239402833e-10
2.08944487782e-05
-2.87139635482e-10
2.08945959922e-05
-1.99823461409e-10
2.08946965217e-05
-1.33677035798e-10
2.08947620648e-05
-8.42189648506e-11
2.08948027904e-05
-4.96936308858e-11
2.08948268653e-05
-2.67690260327e-11
2.08948390994e-05
-1.05959298444e-11
2.08948424256e-05
1.50762738875e-12
2.08948392562e-05
1.02660780689e-11
2.08948312516e-05
1.67596071068e-11
2.0894819549e-05
2.1746337975e-11
2.08948048582e-05
2.58466579624e-11
2.08947875443e-05
2.95727704175e-11
2.08947677392e-05
3.32826996847e-11
2.08947454176e-05
3.72340040611e-11
2.0894720447e-05
4.16306504062e-11
2.08946926059e-05
4.66677331213e-11
2.08946616142e-05
5.25088751759e-11
2.08946272376e-05
5.91833656195e-11
2.08945893129e-05
6.67147773323e-11
2.08945478317e-05
7.50438130916e-11
2.08945030789e-05
8.3952206969e-11
2.08944558812e-05
9.29244767664e-11
2.08944080206e-05
1.00957210641e-10
2.08943626779e-05
1.06556669967e-10
2.0894325738e-05
1.06449024071e-10
2.08943066519e-05
9.62166458448e-11
2.08943205302e-05
6.84994050368e-11
2.0894393832e-05
8.21066971193e-12
2.08945758128e-05
-1.1364174987e-10
2.08949345845e-05
-3.11431833852e-10
2.08955882405e-05
-6.46251787683e-10
2.08966470995e-05
-1.12723617075e-09
2.08982854817e-05
-1.8407450213e-09
2.09008615392e-05
-3.00687877402e-09
2.0904923517e-05
-4.87137425196e-09
2.09113412345e-05
-7.84111447767e-09
2.09215396449e-05
-1.25916515612e-08
2.09380112327e-05
-2.02848652691e-08
2.09649068268e-05
-3.33399549849e-08
2.10091731374e-05
-5.50366235413e-08
2.10839987896e-05
-9.30067481429e-08
2.1215340406e-05
-1.64546740955e-07
2.14561694063e-05
-3.10094267476e-07
2.19144836231e-05
-6.2510815262e-07
2.28025225775e-05
-1.34332524441e-06
2.44487538525e-05
-3.11513997008e-06
-7.04732398689e-06
2.60390850858e-05
5.35171053268e-05
1.24191793325e-05
5.29349682814e-05
1.79445305191e-05
4.96538400463e-05
1.59443950551e-05
4.58401813222e-05
1.24077930294e-05
4.24400922487e-05
9.10127492972e-06
3.97291722152e-05
6.48944333708e-06
3.76873056667e-05
4.56723860438e-06
3.61976627725e-05
3.19065365464e-06
3.51326120773e-05
2.21501751077e-06
3.43823669715e-05
1.52704846742e-06
3.38606259441e-05
1.04388659815e-06
3.35023456679e-05
7.06213607578e-07
3.32596007423e-05
4.71749114676e-07
3.30975904259e-05
3.10304734515e-07
3.29913343519e-05
2.0028340057e-07
3.2923092485e-05
1.26234982294e-07
3.28804045522e-05
7.71342959354e-08
3.28546194357e-05
4.51521876262e-08
3.28397923578e-05
2.47697861526e-08
3.28318658796e-05
1.21333689854e-08
3.28279964377e-05
4.58863427522e-09
3.28269978373e-05
6.67519697704e-11
3.2827178655e-05
-1.81052521578e-09
3.28280271136e-05
-2.71317381658e-09
3.28291429303e-05
-2.93335398261e-09
3.28302902202e-05
-2.77410413642e-09
3.28313462338e-05
-2.4356068994e-09
3.28322566647e-05
-2.03659006842e-09
3.28330066624e-05
-1.64340081685e-09
3.28336023106e-05
-1.28960463998e-09
3.28340585507e-05
-9.88909006276e-10
3.28343934974e-05
-7.44023890107e-10
3.28346598222e-05
-5.53297657542e-10
3.2834876116e-05
-4.15945099444e-10
3.28350232615e-05
-2.80644174249e-10
3.28351224277e-05
-1.83200331672e-10
3.2835188235e-05
-1.15309686395e-10
3.28352301051e-05
-6.84427164554e-11
3.28352549113e-05
-3.52017290814e-11
3.28352666172e-05
-9.99485046881e-12
3.28352687784e-05
8.31004201846e-12
3.28352638864e-05
2.18567938558e-11
3.28352537607e-05
3.20757002449e-11
3.28352396206e-05
4.01865422449e-11
3.28352222122e-05
4.71732399903e-11
3.28352019933e-05
5.36819647873e-11
3.28351792516e-05
6.0139864376e-11
3.28351541706e-05
6.68539807917e-11
3.28351268113e-05
7.41393856851e-11
3.28350971861e-05
8.220680726e-11
3.2835065587e-05
9.08061763219e-11
3.28350325806e-05
9.96890090712e-11
3.28349991573e-05
1.08374802297e-10
3.2834967041e-05
1.15916332784e-10
3.2834939194e-05
1.20566430114e-10
3.28349203791e-05
1.19526632453e-10
3.28349173197e-05
1.09344477334e-10
3.28349413532e-05
8.21340745824e-11
3.28350097632e-05
2.75321979645e-11
3.28351520174e-05
-7.4005776341e-11
3.28354193976e-05
-2.59379627231e-10
3.28359001267e-05
-5.94521932115e-10
3.28366118341e-05
-1.02321374729e-09
3.28376463742e-05
-1.68076912722e-09
3.28392601684e-05
-2.74089507499e-09
3.28418314069e-05
-4.41173796257e-09
3.28458638575e-05
-7.03898955019e-09
3.28521721298e-05
-1.11792284201e-08
3.28620699689e-05
-1.77384603185e-08
3.28777234571e-05
-2.82445711426e-08
3.29027963837e-05
-4.53571715186e-08
3.29426458978e-05
-7.31888402085e-08
3.30071125121e-05
-1.1950264063e-07
3.31131997866e-05
-1.99093477259e-07
3.32899601624e-05
-3.41306616478e-07
3.35856712103e-05
-6.05804839951e-07
3.40715459011e-05
-1.11098238162e-06
3.48139378367e-05
-2.08571687304e-06
3.56768763111e-05
-3.97808023819e-06
-7.11808545807e-06
3.57476310907e-05
5.35105664486e-05
8.90861283475e-06
5.55742221858e-05
1.58808746955e-05
5.52424824379e-05
1.62761347263e-05
5.35977858581e-05
1.40524895357e-05
5.15418475657e-05
1.11572131513e-05
4.95802797627e-05
8.45101107252e-06
4.79243507054e-05
6.22316759761e-06
4.66181387984e-05
4.49686550176e-06
4.56304659689e-05
3.20269028523e-06
4.4905117e-05
2.25239738694e-06
4.43840897986e-05
1.56491375695e-06
4.40166936441e-05
1.07360972628e-06
4.37619671543e-05
7.26475576444e-07
4.35882685599e-05
4.84003308909e-07
4.34718692223e-05
3.16682726783e-07
4.33953591845e-05
2.02745018734e-07
4.33461889527e-05
1.26304537032e-07
4.33154513997e-05
7.58897615764e-08
4.32969151041e-05
4.33061141355e-08
4.32862891193e-05
2.27593984211e-08
4.32806863721e-05
1.01914383867e-08
4.3277878809e-05
2.87438403579e-09
4.32770511265e-05
-9.82762642689e-10
4.32772691454e-05
-2.93110203039e-09
4.32779568199e-05
-3.62092719142e-09
4.32788200191e-05
-3.63719185783e-09
4.32796929708e-05
-3.30843742723e-09
4.32804905569e-05
-2.83404596325e-09
4.32811764243e-05
-2.32912988574e-09
4.32817423558e-05
-1.85539022359e-09
4.32821951839e-05
-1.44158534666e-09
4.32825476092e-05
-1.09629170673e-09
4.32828093824e-05
-8.14907848904e-10
4.32829847846e-05
-5.91178964818e-10
4.32831178596e-05
-4.1354486916e-10
4.32832032855e-05
-2.68445170106e-10
4.32832573631e-05
-1.69199862094e-10
4.32832972598e-05
-1.08146909052e-10
4.32833217734e-05
-5.95194066872e-11
4.32833339036e-05
-2.19270806603e-11
4.32833370641e-05
5.34866965788e-12
4.328333321e-05
2.59100507482e-11
4.3283324045e-05
4.14387651143e-11
4.32833107198e-05
5.37062435158e-11
4.32832938749e-05
6.42053084255e-11
4.3283273935e-05
7.37976309081e-11
4.32832512236e-05
8.30115720484e-11
4.32832260158e-05
9.22001925022e-11
4.32831986703e-05
1.01592748742e-10
4.32831697285e-05
1.11217584957e-10
4.32831398011e-05
1.20755280211e-10
4.32831098369e-05
1.29620587774e-10
4.32830812892e-05
1.36831187092e-10
4.3283056265e-05
1.40791796331e-10
4.32830376949e-05
1.38937473899e-10
4.32830298494e-05
1.27133923078e-10
4.32830405574e-05
9.83727309083e-11
4.32830817267e-05
4.06904342219e-11
4.32831725115e-05
-6.35209505087e-11
4.32833312303e-05
-2.32967991721e-10
4.32835628339e-05
-4.91184326103e-10
4.32839997717e-05
-1.0316032087e-09
4.32847607742e-05
-1.78428393411e-09
4.32860035042e-05
-2.92347082573e-09
4.32879346566e-05
-4.67191207085e-09
4.32909034526e-05
-7.38029528966e-09
4.32954693431e-05
-1.16045548873e-08
4.33025111326e-05
-1.82206211364e-08
4.33134116277e-05
-2.86384913445e-08
4.3330330365e-05
-4.51627803247e-08
4.33565797796e-05
-7.1606007763e-08
4.33977361083e-05
-1.14344566611e-07
4.34626611817e-05
-1.84427113034e-07
4.35650979126e-05
-3.01529608695e-07
4.37250326634e-05
-5.01240763526e-07
4.39671124745e-05
-8.47884081728e-07
4.43080742339e-05
-1.45194344472e-06
4.4709284945e-05
-2.48692634497e-06
4.49297859802e-05
-4.19857965053e-06
-6.58993543722e-06
4.4401632706e-05
5.27351379796e-05
6.17347480638e-06
5.57309343679e-05
1.2885078221e-05
5.73114741548e-05
1.46955948628e-05
5.76109916185e-05
1.37529719987e-05
5.71335224363e-05
1.16346822628e-05
5.63194679365e-05
9.26506550495e-06
5.54489878219e-05
7.09364764845e-06
5.46629773414e-05
5.28287592264e-06
5.4013681876e-05
3.85198569616e-06
5.35061506553e-05
2.75992855878e-06
5.3124254868e-05
1.94680950167e-06
5.28449854776e-05
1.352879081e-06
5.26454394099e-05
9.26021616498e-07
5.25057153661e-05
6.23727333181e-07
5.24097208177e-05
4.12677264434e-07
5.23450150458e-05
2.67450789252e-07
5.23022774752e-05
1.69042117306e-07
5.22746905712e-05
1.03476686974e-07
5.22573662815e-05
6.06304368873e-08
5.22468578342e-05
3.32678911615e-08
5.22407583355e-05
1.62909946466e-08
5.22374496102e-05
6.18317853063e-09
5.2235951026e-05
5.15901859846e-10
5.22354431e-05
-2.42308492798e-09
5.22355080258e-05
-3.68575183106e-09
5.22358534254e-05
-3.98248052074e-09
5.22363075855e-05
-3.76247741381e-09
5.22367738716e-05
-3.30020316315e-09
5.22372011841e-05
-2.75630570399e-09
5.2237566801e-05
-2.22086275791e-09
5.22378640231e-05
-1.73865633978e-09
5.22380956419e-05
-1.32775360556e-09
5.22382719409e-05
-9.91044122592e-10
5.22384048295e-05
-7.23898174709e-10
5.22385052057e-05
-5.13745307597e-10
5.22385898571e-05
-3.5291441386e-10
5.22386554227e-05
-2.34577405298e-10
5.22386977953e-05
-1.50326741575e-10
5.22387306133e-05
-9.21411720029e-11
5.22387461052e-05
-3.7220810942e-11
5.22387514217e-05
2.31313322602e-13
5.22387491323e-05
2.83996329627e-11
5.22387411769e-05
4.95930312099e-11
5.22387288858e-05
6.61904635256e-11
5.22387131204e-05
8.01556970554e-11
5.22386944519e-05
9.26392937676e-11
5.22386733912e-05
1.0422852912e-10
5.22386507544e-05
1.14970587326e-10
5.22386267819e-05
1.25667644515e-10
5.22386002107e-05
1.3785154689e-10
5.22385725703e-05
1.48411541751e-10
5.22385449202e-05
1.57232818936e-10
5.22385187769e-05
1.62879201841e-10
5.2238496548e-05
1.62870097756e-10
5.22384827568e-05
1.52529851195e-10
5.22384898889e-05
1.19766056531e-10
5.22385179062e-05
7.00950317122e-11
5.22385889157e-05
-3.05895502295e-11
5.22387053327e-05
-1.80198972541e-10
5.22388920063e-05
-4.1987420727e-10
5.22392251852e-05
-8.24552349042e-10
5.22397334955e-05
-1.54004358316e-09
5.22404956371e-05
-2.54647988813e-09
5.22416434042e-05
-4.07120084249e-09
5.22433796846e-05
-6.40805604063e-09
5.22460056048e-05
-1.00059849673e-08
5.22499728118e-05
-1.55714506497e-08
5.22559722602e-05
-2.42196873138e-08
5.22650629334e-05
-3.77287160025e-08
5.22788631756e-05
-5.89625158335e-08
5.22998332573e-05
-9.25755407169e-08
5.23316930243e-05
-1.46203773254e-07
5.23797939058e-05
-2.32527451832e-07
5.24510762056e-05
-3.72811376868e-07
5.25524259281e-05
-6.02590005198e-07
5.26844188979e-05
-9.79876762548e-07
5.28248601823e-05
-1.59238439965e-06
5.28922594736e-05
-2.55432504647e-06
5.2674019789e-05
-3.98033815315e-06
-5.7808524974e-06
5.18649352826e-05
5.19834864431e-05
4.18998831554e-06
5.50586638874e-05
9.80990069048e-06
5.76386130667e-05
1.21156456074e-05
5.93259029593e-05
1.2065682033e-05
6.02280149433e-05
1.07325702079e-05
6.05929260782e-05
8.90015430225e-06
6.06482829499e-05
7.0382907123e-06
6.05531884432e-05
5.37797036911e-06
6.04029538218e-05
4.00222026256e-06
6.02479132721e-05
2.91496905906e-06
6.01107877045e-05
2.08393502586e-06
5.99990281496e-05
1.46463859941e-06
5.99125129495e-05
1.01253678776e-06
5.9847921039e-05
6.88319223469e-07
5.98010174591e-05
4.59580833623e-07
5.97677328004e-05
3.00735447264e-07
5.97445914427e-05
1.92183484691e-07
5.97288129016e-05
1.19255249265e-07
5.97182647651e-05
7.11786069042e-08
5.97113585956e-05
4.01741066029e-08
5.97069392795e-05
2.07103683645e-08
5.97042054265e-05
8.91710065742e-09
5.97025964447e-05
2.12496382325e-09
5.97016919673e-05
-1.51851698257e-09
5.97012337313e-05
-3.22741552806e-09
5.9701044272e-05
-3.79291209636e-09
5.97010080554e-05
-3.72614310488e-09
5.97010524225e-05
-3.34444380385e-09
5.97011336514e-05
-2.83740017913e-09
5.97012260726e-05
-2.31314198784e-09
5.97013158079e-05
-1.82824204312e-09
5.97013962417e-05
-1.40803080365e-09
5.9701465949e-05
-1.06058882036e-09
5.97015255309e-05
-7.83310231965e-10
5.97015757933e-05
-5.63830390665e-10
5.97016156259e-05
-3.92562716608e-10
5.97016434569e-05
-2.62218806944e-10
5.97016587989e-05
-1.65475763796e-10
5.9701657217e-05
-9.03637634552e-11
5.97016492812e-05
-2.90872468571e-11
5.97016427903e-05
6.92186627393e-12
5.97016336188e-05
3.77717168345e-11
5.97016233485e-05
6.00621319183e-11
5.97016118376e-05
7.78951098004e-11
5.97015980296e-05
9.41490338756e-11
5.97015817513e-05
1.09090699018e-10
5.97015630137e-05
1.23122463056e-10
5.97015416524e-05
1.36464957798e-10
5.97015183173e-05
1.49104979397e-10
5.9701495474e-05
1.60757919227e-10
5.97014731968e-05
1.70704245712e-10
5.97014527357e-05
1.77654652411e-10
5.97014358052e-05
1.79712919327e-10
5.97014241909e-05
1.74333060387e-10
5.97014179962e-05
1.58526695843e-10
5.97014076384e-05
1.29888945759e-10
5.97014092333e-05
6.82399212243e-11
5.97014198681e-05
-4.14922896115e-11
5.97014927246e-05
-2.53312037519e-10
5.97016741639e-05
-6.01540742558e-10
5.9701967563e-05
-1.11813279534e-09
5.97023460959e-05
-1.9186953852e-09
5.9702913411e-05
-3.11383583341e-09
5.97037522183e-05
-4.90995808842e-09
5.97049759341e-05
-7.63163097704e-09
5.97067489405e-05
-1.17787712505e-08
5.97093086364e-05
-1.81308561237e-08
5.97129981291e-05
-2.7908818345e-08
5.97183061036e-05
-4.3036252168e-08
5.97259124925e-05
-6.65683881692e-08
5.97367186617e-05
-1.03381126803e-07
5.97517860454e-05
-1.61270540515e-07
5.97719519175e-05
-2.52692694547e-07
5.97966252056e-05
-3.97483997857e-07
5.98206488637e-05
-6.26612983554e-07
5.98271409094e-05
-9.86368254582e-07
5.97740320096e-05
-1.53927516125e-06
5.95733140325e-05
-2.35360680101e-06
5.90669466018e-05
-3.47396928485e-06
-4.80815176779e-06
5.80942452633e-05
5.14373053428e-05
2.75268292512e-06
5.42658204823e-05
6.98138546487e-06
5.72496430794e-05
9.1318229345e-06
5.97900273601e-05
9.52529767938e-06
6.1720127776e-05
8.80246972158e-06
6.30883026472e-05
7.53197936338e-06
6.40167161344e-05
6.10987716071e-06
6.46292358658e-05
4.76545057802e-06
6.50258027643e-05
3.60565330939e-06
6.52790772877e-05
2.66169448688e-06
6.54389722926e-05
1.9240399786e-06
6.55386890893e-05
1.3649217673e-06
6.55999276069e-05
9.51298242638e-07
6.5636742418e-05
6.51504392827e-07
6.56581935307e-05
4.38129710603e-07
6.56701017837e-05
2.88827193749e-07
6.56761910705e-05
1.86094208109e-07
6.5678827445e-05
1.16618896785e-07
6.56794979696e-05
7.05081165424e-08
6.56791218682e-05
4.05502547599e-08
6.56782545919e-05
2.15777031861e-08
6.56772238071e-05
9.94795554245e-09
6.56762146979e-05
3.13415385767e-09
6.56753055618e-05
-6.09290159527e-10
6.56745370219e-05
-2.45877571143e-09
6.56739088242e-05
-3.16460611798e-09
6.56734100931e-05
-3.22729574675e-09
6.56730233634e-05
-2.95758946357e-09
6.56727296473e-05
-2.54355069537e-09
6.56725107797e-05
-2.09413292702e-09
6.56723506475e-05
-1.66796082973e-09
6.56722355779e-05
-1.29280431597e-09
6.56721534334e-05
-9.78279540462e-10
6.56720935957e-05
-7.23299802196e-10
6.56720502895e-05
-5.20344216455e-10
6.56720192799e-05
-3.61366688704e-10
6.56719944328e-05
-2.37180390453e-10
6.56719730803e-05
-1.4392873131e-10
6.5671958362e-05
-7.54488164642e-11
6.56719568478e-05
-2.73740838686e-11
6.56719555128e-05
8.45777595847e-12
6.56719483158e-05
4.51692683712e-11
6.56719383297e-05
7.02461386274e-11
6.56719259106e-05
9.05060546861e-11
6.5671911908e-05
1.08334140112e-10
6.56718963253e-05
1.248434941e-10
6.56718789979e-05
1.40603643397e-10
6.56718598434e-05
1.55750064312e-10
6.56718394979e-05
1.69550335659e-10
6.56718198274e-05
1.80488336044e-10
6.5671799675e-05
1.90867837694e-10
6.56717795994e-05
1.976866379e-10
6.56717606942e-05
1.985183687e-10
6.56717447613e-05
1.90114073605e-10
6.5671735278e-05
1.67812642369e-10
6.56717395351e-05
1.25397593694e-10
6.56717475913e-05
5.99266569787e-11
6.56717708345e-05
-6.49964528389e-11
6.56718372919e-05
-3.20015517137e-10
6.56719298534e-05
-6.94315562722e-10
6.56720735302e-05
-1.26197675281e-09
6.56722747036e-05
-2.11997573169e-09
6.56725493922e-05
-3.38855399759e-09
6.56729138071e-05
-5.27431424588e-09
6.56733782983e-05
-8.09598035397e-09
6.56739396755e-05
-1.2339938035e-08
6.56745669987e-05
-1.87579104044e-08
6.56751732318e-05
-2.85147188363e-08
6.56755553502e-05
-4.3417956603e-08
6.56752835379e-05
-6.62960630847e-08
6.56734869167e-05
-1.01583905125e-07
6.56684253996e-05
-1.56208371417e-07
6.56565569352e-05
-2.40823537452e-07
6.56307417351e-05
-3.71668084194e-07
6.55768095466e-05
-5.72680091672e-07
6.54674922232e-05
-8.77050195057e-07
6.5253554949e-05
-1.32533742723e-06
6.48548224995e-05
-1.95487422541e-06
6.41585890824e-05
-2.77773488863e-06
-3.72380938358e-06
6.30742465539e-05
5.10850423319e-05
1.66764054499e-06
5.36118444659e-05
4.45458324458e-06
5.66873163249e-05
6.05635099963e-06
5.96894462738e-05
6.52316765713e-06
6.22997268222e-05
6.1921891018e-06
6.44136883297e-05
5.41801778769e-06
6.60471844254e-05
4.47638099979e-06
6.72686159387e-05
3.54401900429e-06
6.81598949608e-05
2.71437423172e-06
6.87977615695e-05
2.02382782851e-06
6.92467459845e-05
1.47505552013e-06
6.95579648875e-05
1.05370282764e-06
6.97704316657e-05
7.38831435279e-07
6.99131748706e-05
5.08761167356e-07
7.00073861688e-05
3.43918400952e-07
7.00682959734e-05
2.27917387712e-07
7.01066982898e-05
1.47691901587e-07
7.01301409143e-05
9.31762939269e-08
7.01438303821e-05
5.68186823995e-08
7.01513068397e-05
3.30738433486e-08
7.01549396804e-05
1.79449208509e-08
7.0156287827e-05
8.59987882055e-09
7.01563600819e-05
3.06197949709e-09
7.01557683993e-05
-1.75177161413e-11
7.01549078881e-05
-1.59816626322e-09
7.01539846384e-05
-2.24124964748e-09
7.01531163616e-05
-2.35890410872e-09
7.01523567169e-05
-2.19782173884e-09
7.01517229114e-05
-1.90961304958e-09
7.015121209e-05
-1.58317031508e-09
7.01508113228e-05
-1.26704398264e-09
7.01505036557e-05
-9.84980314326e-10
7.01502714507e-05
-7.45909401899e-10
7.01500985414e-05
-5.5021645587e-10
7.01499719317e-05
-3.93552512383e-10
7.01498809714e-05
-2.70218112413e-10
7.01498185629e-05
-1.74579258256e-10
7.0149777249e-05
-1.0241869403e-10
7.01497489284e-05
-4.69295386361e-11
7.01497191338e-05
2.62136943639e-12
7.01496959951e-05
3.17989678897e-11
7.01496832409e-05
5.81251884185e-11
7.01496729477e-05
8.07373188602e-11
7.01496632234e-05
1.00421700108e-10
7.0149653316e-05
1.18424295756e-10
7.01496428423e-05
1.35488902572e-10
7.01496316582e-05
1.51943827539e-10
7.01496197847e-05
1.67757241753e-10
7.01496068727e-05
1.82564392477e-10
7.01495916588e-05
1.95762030957e-10
7.01495760886e-05
2.06447529744e-10
7.0149560893e-05
2.12836825152e-10
7.01495468254e-05
2.12485751117e-10
7.0149534537e-05
2.02251126532e-10
7.01495237974e-05
1.78354876375e-10
7.01495122662e-05
1.36695001303e-10
7.01494989072e-05
7.3030671951e-11
7.01494918708e-05
-5.8216701473e-11
7.01494952701e-05
-3.2365191187e-10
7.01495125932e-05
-7.11840058389e-10
7.01495299631e-05
-1.27950093152e-09
7.01495247325e-05
-2.1148402859e-09
7.01494694707e-05
-3.33331429725e-09
7.01493104082e-05
-5.11519157397e-09
7.01489478596e-05
-7.73329204837e-09
7.01482055056e-05
-1.15973784091e-08
7.01467808843e-05
-1.73330291342e-08
7.01441602144e-05
-2.58937318083e-08
7.01394656659e-05
-3.87230117571e-08
7.01312120049e-05
-5.80419056802e-08
7.01169074291e-05
-8.72787549334e-08
7.00923841969e-05
-1.31684515964e-07
7.00505368011e-05
-1.98975465585e-07
6.99793687661e-05
-3.00499372728e-07
6.9858877222e-05
-4.52187961704e-07
6.96565564613e-05
-6.74728747788e-07
6.93223907214e-05
-9.91171161756e-07
6.87866616771e-05
-1.41914508765e-06
6.79665126595e-05
-1.95758527827e-06
-2.56075265941e-06
6.6803455961e-05
5.08804131647e-05
7.87227332313e-07
5.31704660911e-05
2.16453023231e-06
5.62177495887e-05
3.00906742612e-06
5.94382695303e-05
3.3026476422e-06
6.24449692823e-05
3.18548927798e-06
6.50382526353e-05
2.82473436608e-06
6.71548661415e-05
2.35976742833e-06
6.88135645757e-05
1.8853205095e-06
7.00731705207e-05
1.45476823103e-06
7.10056674338e-05
1.09133086588e-06
7.16812636841e-05
7.99459226768e-07
7.21614230098e-05
5.73543465989e-07
7.24966039191e-05
4.03650497166e-07
7.27264804687e-05
2.78884597344e-07
7.28812793774e-05
1.89119481335e-07
7.29834691582e-05
1.25727606054e-07
7.30494129843e-05
8.17480860995e-08
7.30908151536e-05
5.17741471485e-08
7.31159091763e-05
3.17246943489e-08
7.31303937865e-05
1.85892803793e-08
7.31381486088e-05
1.01901578871e-08
7.31417691589e-05
4.97939936619e-09
7.31429569838e-05
1.8742354785e-09
7.314281073e-05
1.2882613254e-10
7.3141987633e-05
-7.74971296278e-10
7.31409048684e-05
-1.15837876642e-09
7.31397901488e-05
-1.24406976699e-09
7.3138762881e-05
-1.17043039963e-09
7.31378755206e-05
-1.02212051118e-09
7.31371419794e-05
-8.4948845315e-10
7.31365548749e-05
-6.79789765648e-10
7.31360968182e-05
-5.26765074262e-10
7.31357469403e-05
-3.95864243051e-10
7.31354846116e-05
-2.87712228775e-10
7.31352914888e-05
-2.00246708689e-10
7.3135151941e-05
-1.30481305682e-10
7.31350527095e-05
-7.51544040936e-11
7.31349812458e-05
-3.07585770146e-11
7.31349283305e-05
6.18468095944e-12
7.3134898767e-05
3.23855087415e-11
7.3134875805e-05
5.49622710218e-11
7.3134859168e-05
7.49617240641e-11
7.31348469595e-05
9.31408437066e-11
7.31348373733e-05
1.10196278799e-10
7.31348291377e-05
1.26840505146e-10
7.31348213629e-05
1.43434470664e-10
7.31348134224e-05
1.60040565505e-10
7.3134804872e-05
1.76441122419e-10
7.31347954371e-05
1.92099853869e-10
7.31347850581e-05
2.06198747509e-10
7.31347737725e-05
2.17740165062e-10
7.31347616246e-05
2.24936883689e-10
7.31347486975e-05
2.25310011213e-10
7.31347351535e-05
2.15639916649e-10
7.31347213846e-05
1.91922115438e-10
7.3134708145e-05
1.4969714328e-10
7.31346945359e-05
8.63836152919e-11
7.31346685455e-05
-3.2478478834e-11
7.31346245511e-05
-2.79886004286e-10
7.31345550327e-05
-6.42515468849e-10
7.31344367737e-05
-1.16138882626e-09
7.31342262462e-05
-1.90440018456e-09
7.31338548816e-05
-2.9619657845e-09
7.31332071731e-05
-4.46742055775e-09
7.31320893217e-05
-6.61530279672e-09
7.31301779679e-05
-9.68582116154e-09
7.31269455026e-05
-1.41003006363e-08
7.31215338084e-05
-2.04817077821e-08
7.31125248385e-05
-2.97136234518e-08
7.3097608878e-05
-4.31254307181e-08
7.30730753589e-05
-6.27446603061e-08
7.30330068869e-05
-9.16154295616e-08
7.29678658194e-05
-1.33833725291e-07
7.28625992211e-05
-1.95232069767e-07
7.26939831897e-05
-2.83571349985e-07
7.24274249426e-05
-4.08169880702e-07
7.20144162056e-05
-5.78161836078e-07
7.13935323174e-05
-7.98260991774e-07
7.04988848474e-05
-1.0629374026e-06
-1.34724603915e-06
6.9285378334e-05
5.07871725718e-05
5.47131097704e-11
5.29516497691e-05
5.29498900555e-11
5.59606883252e-05
2.87943031207e-11
5.92633217161e-05
1.41781972961e-11
6.24488081875e-05
2.73528664988e-12
6.52735486157e-05
-6.13044957857e-12
6.76333280126e-05
-1.20328755034e-11
6.95186634395e-05
-1.4977320242e-11
7.09734470225e-05
-1.54067430735e-11
7.20647917585e-05
-1.39190265131e-11
7.28642620907e-05
-1.11478611249e-11
7.34378132705e-05
-7.74902607994e-12
7.38414681228e-05
-4.38271950009e-12
7.41203543951e-05
-1.69378729954e-12
7.43094741345e-05
-2.67329712583e-13
7.4435202247e-05
-5.05757590133e-13
7.45169530029e-05
-2.6579629967e-12
7.45687336525e-05
-6.47854093988e-12
7.4600469712e-05
-1.13289374764e-11
7.46190752692e-05
-1.6228372009e-11
7.46292855362e-05
-2.00489299712e-11
7.46342867028e-05
-2.16962373535e-11
7.46361817246e-05
-2.07053064238e-11
7.46363289947e-05
-1.83538548974e-11
7.46355699366e-05
-1.58151095779e-11
7.46344243184e-05
-1.2654740399e-11
7.46331894059e-05
-9.04335235528e-12
7.46320241496e-05
-5.05133649708e-12
7.46310023494e-05
-1.87723046543e-13
7.46301490959e-05
3.90667620397e-12
7.46294608694e-05
8.58663259583e-12
7.46289206789e-05
1.35844607021e-11
7.46285061243e-05
1.88582266388e-11
7.4628194116e-05
2.44718648003e-11
7.46279634433e-05
3.06085133274e-11
7.46277957579e-05
3.73915961142e-11
7.4627675893e-05
4.4902082315e-11
7.46275922065e-05
5.31229544432e-11
7.46275365097e-05
6.20797213525e-11
7.4627497669e-05
7.14268162043e-11
7.46274717063e-05
8.11255837791e-11
7.4627454771e-05
9.20944620312e-11
7.462744387e-05
1.0423397674e-10
7.46274367713e-05
1.17481231378e-10
7.46274319365e-05
1.31855354319e-10
7.46274282911e-05
1.47250922696e-10
7.46274250752e-05
1.63412447111e-10
7.46274217365e-05
1.79912161837e-10
7.46274178335e-05
1.96101417275e-10
7.46274130042e-05
2.11083211088e-10
7.46274070556e-05
2.23692982937e-10
7.46273997564e-05
2.32184816904e-10
7.46273907297e-05
2.34228688507e-10
7.46273793263e-05
2.26881741384e-10
7.46273644238e-05
2.06616294683e-10
7.46273443037e-05
1.6957431852e-10
7.46273178871e-05
1.12542862307e-10
7.46272734807e-05
1.16775426687e-11
7.46271834788e-05
-1.90110133141e-10
7.4627046252e-05
-5.05479247558e-10
7.46268217839e-05
-9.37062966884e-10
7.46264490836e-05
-1.53177963922e-09
7.46258313795e-05
-2.34426684347e-09
7.46248113976e-05
-3.44736901442e-09
7.46231333614e-05
-4.93713054089e-09
7.46203787111e-05
-6.93097467895e-09
7.46158822421e-05
-9.60357327466e-09
7.46085823448e-05
-1.31814742754e-08
7.45967351665e-05
-1.78660078405e-08
7.45775346714e-05
-2.39244015967e-08
7.45465705942e-05
-3.17799855002e-08
7.44970810974e-05
-4.21252904583e-08
7.44183055457e-05
-5.50574781273e-08
7.42938101188e-05
-7.07359119025e-08
7.40991561025e-05
-8.8916674746e-08
7.37994301744e-05
-1.08443328989e-07
7.33478193955e-05
-1.26550416197e-07
7.26876199615e-05
-1.38061164285e-07
7.17604653793e-05
-1.35782421714e-07
-1.11200900203e-07
7.05244204399e-05
5.07871715355e-05
-7.87116870022e-07
5.29516489131e-05