/*--------------------------------*- C++ -*----------------------------------*\
| =========                 |                                                 |
| \\      /  F ield         | OpenFOAM: The Open Source CFD Toolbox           |
|  \\    /   O peration     | Version:  2106                                  |
|   \\  /    A nd           | Website:  www.openfoam.com                      |
|    \\/     M anipulation  |                                                 |
\*---------------------------------------------------------------------------*/
FoamFile
{
    version     2.0;
    format      ascii;
    arch        "LSB;label=32;scalar=64";
    class       surfaceScalarField;
    location    "0.4";
    object      phi;
}
// * * * * * * * * * * * * * * * * * * * * * * * * * * * * * * * * * * * * * //

dimensions      [0 3 -1 0 0 0 0];

oriented        oriented;

internalField   nonuniform List<scalar> 
22100
(
3.38461202927e-05
1.61538797141e-05
2.24572096948e-05
1.13889104999e-05
1.62585527056e-05
6.19865692746e-06
1.27977755917e-05
3.46077703815e-06
1.08046415762e-05
1.99313394874e-06
9.60458838489e-06
1.20005312614e-06
8.85132044106e-06
7.53267884622e-07
8.36435138301e-06
4.86968959567e-07
8.04433321861e-06
3.2001804433e-07
7.8328380921e-06
2.11494968292e-07
7.69339455753e-06
1.39443337812e-07
7.6022372778e-06
9.11570549743e-08
7.54347410136e-06
5.87629406833e-08
7.50633680878e-06
3.7137061278e-08
7.48349694764e-06
2.2839639671e-08
7.46997579693e-06
1.35209331319e-08
7.46241087607e-06
7.56471281913e-09
7.4585425749e-06
3.86811420449e-09
7.4568233057e-06
1.71904081121e-09
7.45641640636e-06
4.06696595869e-10
7.45676598138e-06
-3.49767923416e-10
7.4574519421e-06
-6.86135326035e-10
7.45821009938e-06
-7.58309973121e-10
7.45893527034e-06
-7.25286257394e-10
7.4595795098e-06
-6.44302910938e-10
7.46012343833e-06
-5.43934133232e-10
7.46056560561e-06
-4.42120279806e-10
7.46091445566e-06
-3.48758461957e-10
7.46118288637e-06
-2.68299984283e-10
7.46138498403e-06
-2.01922268528e-10
7.46153410603e-06
-1.4892508229e-10
7.46164196211e-06
-1.07667019128e-10
7.46171828301e-06
-7.61091621301e-11
7.46177116651e-06
-5.26790150986e-11
7.46180454904e-06
-3.32272785821e-11
7.46182356483e-06
-1.87011793654e-11
7.46183274432e-06
-9.10417668782e-12
7.46183577353e-06
-2.80542971527e-12
7.46183449414e-06
1.48426256247e-12
7.46183009145e-06
4.64334462181e-12
7.46182352215e-06
6.86451045414e-12
7.46181539139e-06
8.47761181338e-12
7.46180611023e-06
9.72837460758e-12
7.4617958198e-06
1.08062962345e-11
7.46178452066e-06
1.19014956313e-11
7.46177209532e-06
1.31310911288e-11
7.46175824513e-06
1.45605277398e-11
7.46174265769e-06
1.63209867695e-11
7.46172490217e-06
1.8503782275e-11
7.46170441142e-06
2.12241540169e-11
7.4616805699e-06
2.45505865066e-11
7.46165271953e-06
2.85692726066e-11
7.46162006961e-06
3.33419531588e-11
7.46158179283e-06
3.89635522382e-11
7.46153700767e-06
4.5459355225e-11
7.46148487581e-06
5.27843323784e-11
7.46142477761e-06
6.07452545547e-11
7.46135663045e-06
6.87723819951e-11
7.46128106316e-06
7.61257730391e-11
7.46120075747e-06
8.10226233768e-11
7.46112195513e-06
7.94811834916e-11
7.46105679318e-06
6.57850224944e-11
7.46101273424e-06
4.44939824338e-11
7.46100932837e-06
3.84945805373e-12
7.46108257127e-06
-7.27771835765e-11
7.46129089101e-06
-2.07694849277e-10
7.46172858592e-06
-4.37190279211e-10
7.46254588218e-06
-8.16703776722e-10
7.46397796125e-06
-1.43147810812e-09
7.46638019049e-06
-2.40164720375e-09
7.47020175172e-06
-3.82094012742e-09
7.476654586e-06
-6.45215658386e-09
7.48742870479e-06
-1.07733417351e-08
7.50560618537e-06
-1.81766456246e-08
7.53879265253e-06
-3.31856189957e-08
7.6080046349e-06
-6.92111727458e-08
7.77465386587e-06
-1.66648491269e-07
8.22952375879e-06
-4.54869208539e-07
9.69701446003e-06
-1.46749014242e-06
-5.45086984923e-06
1.51478842351e-05
5.02175947907e-05
1.59362848064e-05
4.42441114258e-05
1.73623936862e-05
3.77795011866e-05
1.26632670342e-05
3.26461435609e-05
8.59413453559e-06
2.89380912879e-05
5.70118609778e-06
2.63596206855e-05
3.77852355954e-06
2.45875160548e-05
2.52537233402e-06
2.33734737202e-05
1.70101105502e-06
2.25435243579e-05
1.14996711709e-06
2.19782153214e-05
7.76803657092e-07
2.15955124172e-05
5.22145851112e-07
2.13387354734e-05
3.47933586161e-07
2.11684935877e-05
2.29004408055e-07
2.10573356468e-05
1.48294598496e-07
2.09861474393e-05
9.40274728763e-08
2.09416748077e-05
5.79932274749e-08
2.09147927928e-05
3.44464455782e-08
2.08992935216e-05
1.93671235813e-08
2.08910696043e-05
9.94272477489e-09
2.08872691656e-05
4.20686535422e-09
2.08862000042e-05
7.1915027394e-10
2.08864456028e-05
-9.31907586428e-10
2.08873169418e-05
-1.62977784625e-09
2.08884564006e-05
-1.86478361626e-09
2.08896297474e-05
-1.81759982668e-09
2.0890712813e-05
-1.62686796881e-09
2.08916505329e-05
-1.37963412547e-09
2.08924282211e-05
-1.1261897129e-09
2.08930536343e-05
-8.93436912705e-10
2.08935459846e-05
-6.93990032753e-10
2.08939300157e-05
-5.32686342967e-10
2.08942317741e-05
-4.09070931583e-10
2.08944429762e-05
-2.86908034204e-10
2.08945902083e-05
-1.99484685871e-10
2.08946907853e-05
-1.33580826502e-10
2.08947564259e-05
-8.40839829553e-11
2.08947972172e-05
-4.95763588708e-11
2.08948213948e-05
-2.66702066739e-11
2.08948337794e-05
-1.0500551281e-11
2.08948373074e-05
1.56471576925e-12
2.089483445e-05
1.03202767555e-11
2.08948268654e-05
1.67777545764e-11
2.08948157236e-05
2.17424594096e-11
2.08948017253e-05
2.58160970845e-11
2.08947852546e-05
2.94971450432e-11
2.08947664193e-05
3.31786465351e-11
2.08947451542e-05
3.70812383574e-11
2.0894721339e-05
4.14212770258e-11
2.0894694764e-05
4.63684452587e-11
2.08946651278e-05
5.21108021373e-11
2.08946322072e-05
5.86309392316e-11
2.08945958757e-05
6.59972584994e-11
2.08945561797e-05
7.41381531424e-11
2.0894513463e-05
8.28118201409e-11
2.08944685796e-05
9.1458282702e-11
2.08944233266e-05
9.91115814699e-11
2.08943810711e-05
1.040252967e-10
2.08943479065e-05
1.0310930792e-10
2.08943331897e-05
9.18328767496e-11
2.08943525432e-05
6.27853007148e-11
2.08944328402e-05
3.39984229298e-14
2.08946228559e-05
-1.23244135421e-10
2.08949909928e-05
-3.2269740346e-10
2.08956562612e-05
-6.60555477311e-10
2.08967253991e-05
-1.14101632751e-09
2.08983768917e-05
-1.85820335414e-09
2.09009683511e-05
-3.02767270014e-09
2.09050476899e-05
-4.89504910957e-09
2.09114841043e-05
-7.866788504e-09
2.09217011515e-05
-1.26174940658e-08
2.09381888317e-05
-2.03073198737e-08
2.09650912167e-05
-3.33531147307e-08
2.10093474019e-05
-5.50280606871e-08
2.10841274148e-05
-9.29551916913e-08
2.12153520663e-05
-1.64408849231e-07
2.14559182712e-05
-3.09776064646e-07
2.19136587328e-05
-6.24387777591e-07
2.28004373291e-05
-1.34164675855e-06
2.44439792257e-05
-3.11103092359e-06
-7.03674104438e-06
2.60298510323e-05
5.35171052631e-05
1.24191794644e-05
5.29349681185e-05
1.7944530685e-05
4.96538398089e-05
1.59443952422e-05
4.58401809841e-05
1.24077932426e-05
4.24400918106e-05
9.10127516911e-06
3.97291716333e-05
6.48944360021e-06
3.76873049135e-05
4.56723888701e-06
3.61976617834e-05
3.19065394622e-06
3.51326108039e-05
2.2150178071e-06
3.43823653673e-05
1.52704875805e-06
3.38606239717e-05
1.04388686674e-06
3.35023433133e-05
7.06213841493e-07
3.32595980156e-05
4.71749305749e-07
3.30975873523e-05
3.10304880485e-07
3.29913309542e-05
2.00283495016e-07
3.29230887921e-05
1.26235024301e-07
3.28804005907e-05
7.71343121775e-08
3.28546152212e-05
4.5152173145e-08
3.28397879139e-05
2.47697441525e-08
3.28318612038e-05
1.21333016671e-08
3.28279915761e-05
4.58855982658e-09
3.28269927804e-05
6.66706486477e-11
3.28271734622e-05
-1.81059363968e-09
3.28280218381e-05
-2.71321921274e-09
3.28291376264e-05
-2.93336537028e-09
3.2830284933e-05
-2.77407261044e-09
3.2831340996e-05
-2.43552798367e-09
3.28322514952e-05
-2.03647175724e-09
3.28330015751e-05
-1.64325705024e-09
3.28335973012e-05
-1.28943948399e-09
3.28340536713e-05
-9.88705960122e-10
3.28343887549e-05
-7.43858707037e-10
3.28346552492e-05
-5.53141446541e-10
3.28348714962e-05
-4.15855404978e-10
3.28350189248e-05
-2.80476013154e-10
3.28351181868e-05
-1.83119862554e-10
3.2835184169e-05
-1.15209517972e-10
3.28352262186e-05
-6.83626943835e-11
3.28352512637e-05
-3.51395532766e-11
3.28352632828e-05
-9.93399999918e-12
3.2835265829e-05
8.32304229492e-12
3.28352614712e-05
2.1831386589e-11
3.28352520278e-05
3.20359345295e-11
3.28352386956e-05
4.00952327801e-11
3.28352222501e-05
4.70066994323e-11
3.2835203134e-05
5.34375070327e-11
3.28351816147e-05
5.98038112438e-11
3.28351578667e-05
6.63766466788e-11
3.28351320181e-05
7.34112121215e-11
3.28351040494e-05
8.12446937115e-11
3.28350742847e-05
8.95833215169e-11
3.28350433154e-05
9.81181419574e-11
3.28350122161e-05
1.06371994367e-10
3.28349828112e-05
1.1333349539e-10
3.28349581234e-05
1.17227318863e-10
3.28349428001e-05
1.15455164874e-10
3.28349440099e-05
1.03756982211e-10
3.28349732158e-05
7.46907782381e-11
3.28350478894e-05
1.79074454408e-11
3.28351979601e-05
-8.64936240772e-11
3.28354748271e-05
-2.76072929979e-10
3.2835968087e-05
-6.15784302788e-10
3.28366893054e-05
-1.04319799855e-09
3.28377362384e-05
-1.70686296677e-09
3.28393685162e-05
-2.77269438661e-09
3.28419605351e-05
-4.44934698944e-09
3.28460163993e-05
-7.08253821871e-09
3.28523505552e-05
-1.12282160475e-08
3.2862275949e-05
-1.7791152262e-08
3.28779565692e-05
-2.82970034135e-08
3.29030518756e-05
-4.54014583172e-08
3.29429108478e-05
-7.32108546459e-08
3.30073598416e-05
-1.19475809796e-07
3.31133742561e-05
-1.98968388787e-07
3.3289954955e-05
-3.40988403589e-07
3.358528465e-05
-6.05104725529e-07
3.40704073803e-05
-1.10950954576e-06
3.48114047645e-05
-2.08264300599e-06
3.56720201288e-05
-3.97164542286e-06
-7.10464426916e-06
3.57399231021e-05
5.35105663903e-05
8.90861301444e-06
5.55742220219e-05
1.58808749118e-05
5.5242482198e-05
1.62761349773e-05
5.3597785512e-05
1.40524898225e-05
5.15418471112e-05
1.11572134688e-05
4.95802791536e-05
8.45101141059e-06
4.79243499082e-05
6.22316795381e-06
4.66181377521e-05
4.49686586422e-06
4.56304646229e-05
3.20269063989e-06
4.49051153069e-05
2.25239772146e-06
4.43840877259e-05
1.56491405775e-06
4.40166911832e-05
1.07360998406e-06
4.37619643212e-05
7.26475784661e-07
4.35882653798e-05
4.84003465508e-07
4.34718657217e-05
3.16682827725e-07
4.33953554113e-05
2.02745068694e-07
4.33461849162e-05
1.26304522344e-07
4.33154471198e-05
7.58897022725e-08
4.32969106049e-05
4.33060285301e-08
4.32862844146e-05
2.27592830099e-08
4.32806814772e-05
1.01913067504e-08
4.32778737623e-05
2.87425191567e-09
4.32770459662e-05
-9.82874521604e-10
4.32772639301e-05
-2.93118057856e-09
4.32779516039e-05
-3.62096583283e-09
4.32788148444e-05
-3.63718305455e-09
4.32796878628e-05
-3.30837889694e-09
4.32804855317e-05
-2.833941557e-09
4.32811714916e-05
-2.32898163485e-09
4.32817375363e-05
-1.85523701911e-09
4.32821904972e-05
-1.44146241655e-09
4.3282543071e-05
-1.09624660884e-09
4.32828048046e-05
-8.14953950055e-10
4.32829805066e-05
-5.91038844909e-10
4.32831136851e-05
-4.13548882207e-10
4.32831992855e-05
-2.68449783869e-10
4.32832535558e-05
-1.69305884406e-10
4.32832936981e-05
-1.0822751683e-10
4.32833184875e-05
-5.96875096401e-11
4.32833309846e-05
-2.20729333511e-11
4.32833346019e-05
5.19908378805e-12
4.3283331355e-05
2.57457583006e-11
4.32833229116e-05
4.12683139157e-11
4.32833104676e-05
5.34515283541e-11
4.32832946892e-05
6.38574371215e-11
4.32832759435e-05
7.32856155228e-11
4.32832545826e-05
8.22874959071e-11
4.32832308918e-05
9.12146235013e-11
4.32832051817e-05
1.00238804847e-10
4.32831780379e-05
1.09488797844e-10
4.32831501478e-05
1.18581451605e-10
4.3283122472e-05
1.26888809873e-10
4.32830964843e-05
1.3340193553e-10
4.32830742937e-05
1.36508628762e-10
4.32830588429e-05
1.33627070414e-10
4.3283054688e-05
1.20428938616e-10
4.32830700332e-05
8.93537754808e-11
4.32831166429e-05
2.84663278934e-11
4.32832143161e-05
-7.88762057937e-11
4.32833785318e-05
-2.50029648337e-10
4.32836258031e-05
-5.22679158755e-10
4.32840738832e-05
-1.06293212024e-09
4.32848522785e-05
-1.82091853652e-09
4.32861132399e-05
-2.96699496736e-09
4.32880649961e-05
-4.72356452963e-09
4.32910578774e-05
-7.44140042091e-09
4.32956517445e-05
-1.16754837257e-08
4.33027252828e-05
-1.83007389476e-08
4.33136605857e-05
-2.87253461905e-08
4.33306151356e-05
-4.52504430655e-08
4.33568971459e-05
-7.16823413135e-08
4.33980747972e-05
-1.14387334309e-07
4.34629951365e-05
-1.84394961571e-07
4.35653740846e-05
-3.01346153814e-07
4.37251512549e-05
-5.00764477272e-07
4.39668973277e-05
-8.4684985915e-07
4.43072374164e-05
-1.44984878657e-06
4.47074139289e-05
-2.48281889812e-06
4.49264628742e-05
-4.1906936231e-06
-6.57515868323e-06
4.43969777916e-05
5.27351379235e-05
6.17347502949e-06
5.5730934205e-05
1.28850784913e-05
5.7311473912e-05
1.46955951786e-05
5.76109912635e-05
1.37529723516e-05
5.7133521961e-05
1.16346826482e-05
5.63194672962e-05
9.26506590964e-06
5.54489869751e-05
7.09364806209e-06
5.46629762247e-05
5.28287633278e-06
5.40136804398e-05
3.85198608803e-06
5.35061488524e-05
2.75992891648e-06
5.31242526701e-05
1.94680981384e-06
5.28449828792e-05
1.35287933669e-06
5.26454364312e-05
9.26021812904e-07
5.25057120318e-05
6.23727467665e-07
5.2409717162e-05
4.12677333603e-07
5.23450111037e-05
2.67450800651e-07
5.23022732765e-05
1.69042076337e-07
5.22746861349e-05
1.03476597452e-07
5.22573616184e-05
6.06303114395e-08
5.22468529699e-05
3.32677446931e-08
5.22407532894e-05
1.62908350188e-08
5.22374444165e-05
6.18302579144e-09
5.22359457356e-05
5.15779012849e-10
5.22354377648e-05
-2.42316600433e-09
5.22355027023e-05
-3.6857831021e-09
5.22358481532e-05
-3.98246207855e-09
5.22363023859e-05
-3.76241179013e-09
5.223676876e-05
-3.30009615306e-09
5.22371961466e-05
-2.75618124047e-09
5.22375618465e-05
-2.22073394251e-09
5.22378591718e-05
-1.73854455968e-09
5.22380908832e-05
-1.32761579011e-09
5.22382673461e-05
-9.90995125857e-10
5.2238400382e-05
-7.23946553882e-10
5.22385009444e-05
-5.13879261943e-10
5.22385858036e-05
-3.53137507895e-10
5.22386516023e-05
-2.34801585585e-10
5.22386941726e-05
-1.50586920513e-10
5.22387273459e-05
-9.23585755819e-11
5.22387431881e-05
-3.74381244173e-11
5.22387489753e-05
-1.56490176461e-14
5.22387473018e-05
2.81226556541e-11
5.2238740072e-05
4.9252545849e-11
5.223872869e-05
6.57041276089e-11
5.22387139758e-05
7.95356282263e-11
5.22386964937e-05
9.184306988e-11
5.22386766907e-05
1.03242464084e-10
5.22386551749e-05
1.13912922142e-10
5.22386331825e-05
1.23351597027e-10
5.22386084846e-05
1.35251225489e-10
5.22385828774e-05
1.45168274211e-10
5.22385575372e-05
1.53165290253e-10
5.22385340752e-05
1.57750688952e-10
5.22385151388e-05
1.56249036352e-10
5.2238506391e-05
1.42965594946e-10
5.22385166811e-05
1.1072249843e-10
5.22385497292e-05
5.74262087752e-11
5.22386286179e-05
-4.95177654993e-11
5.22387509016e-05
-2.0035296138e-10
5.22389489378e-05
-4.47593082956e-10
5.22392892887e-05
-8.62176348991e-10
5.22398112249e-05
-1.58418010394e-09
5.2240589154e-05
-2.59795494794e-09
5.22417559555e-05
-4.13297209424e-09
5.22435152727e-05
-6.48191762873e-09
5.22461684549e-05
-1.00936017848e-08
5.22501675623e-05
-1.56736386997e-08
5.22562039455e-05
-2.4336159416e-08
5.2265336636e-05
-3.78569812854e-08
5.22791830423e-05
-5.90957076125e-08
5.23002007383e-05
-9.26988507984e-08
5.23321047604e-05
-1.46290199962e-07
5.23802371758e-05
-2.32526291e-07
5.24515213166e-05
-3.72629324674e-07
5.25528160301e-05
-6.02058381613e-07
5.26846596146e-05
-9.78692796606e-07
5.28248198218e-05
-1.59000805358e-06
5.28918102077e-05
-2.54980860417e-06
5.2673193666e-05
-3.97207648858e-06
-5.76629286009e-06
5.18643283084e-05
5.19834863932e-05
4.18998857961e-06
5.50586637343e-05
9.80990100907e-06
5.76386128322e-05
1.21156459776e-05
5.93259026144e-05
1.20656824432e-05
6.02280144718e-05
1.07325706462e-05
6.05929254336e-05
8.90015475466e-06
6.06482820862e-05
7.03829116493e-06
6.05531872939e-05
5.37797080807e-06
6.0402952336e-05
4.00222067703e-06
6.02479114061e-05
2.91496943066e-06
6.01107854307e-05
2.08393534165e-06
5.9999025468e-05
1.46463885106e-06
5.99125098812e-05
1.01253697386e-06
5.98479176085e-05
6.88319339111e-07
5.98010137068e-05
4.59580886431e-07
5.97677287598e-05
3.00735443861e-07
5.97445871428e-05
1.92183432783e-07
5.97288083661e-05
1.19255157575e-07
5.97182600059e-05
7.11784785424e-08
5.97113536342e-05
4.01739573604e-08
5.97069341449e-05
2.07102148977e-08
5.97042001549e-05
8.91695787605e-09
5.97025910832e-05
2.12484920346e-09
5.97016865692e-05
-1.5185880339e-09
5.97012283497e-05
-3.22743336811e-09
5.97010389468e-05
-3.79288276625e-09
5.97010028068e-05
-3.72608504764e-09
5.97010472514e-05
-3.34435933134e-09
5.97011285485e-05
-2.83729878062e-09
5.97012210408e-05
-2.31305673489e-09
5.9701310905e-05
-1.82818436927e-09
5.97013913913e-05
-1.4081102549e-09
5.97014612523e-05
-1.06073732338e-09
5.97015209864e-05
-7.83564707989e-10
5.97015714363e-05
-5.64144516283e-10
5.9701611493e-05
-3.92911206719e-10
5.97016395102e-05
-2.62591906243e-10
5.9701655195e-05
-1.65785532821e-10
5.97016539385e-05
-9.07309838643e-11
5.97016463601e-05
-2.94427659737e-11
5.97016403798e-05
6.47321340369e-12
5.97016319159e-05
3.72417722984e-11
5.9701622285e-05
5.95611046773e-11
5.9701611699e-05
7.72225981227e-11
5.97015989616e-05
9.32620449895e-11
5.97015839395e-05
1.0790066242e-10
5.97015667276e-05
1.21562620478e-10
5.97015473205e-05
1.3442065096e-10
5.97015253682e-05
1.46400710009e-10
5.97015043774e-05
1.57274879803e-10
5.97014842121e-05
1.66292998144e-10
5.97014661449e-05
1.72140934074e-10
5.97014518766e-05
1.72938063415e-10
5.97014427171e-05
1.66229784361e-10
5.97014372315e-05
1.49016186978e-10
5.97014301255e-05
1.1942542853e-10
5.97014366343e-05
5.09358834541e-11
5.97014500237e-05
-6.20467697368e-11
5.97015380711e-05
-2.87716321942e-10
5.97017301341e-05
-6.39043325863e-10
5.97020327734e-05
-1.16418919766e-09
5.97024231421e-05
-1.97393037966e-09
5.97030059824e-05
-3.17996864104e-09
5.97038635084e-05
-4.98973130512e-09
5.97051099941e-05
-7.72755978455e-09
5.97069106971e-05
-1.18932893952e-08
5.97095037134e-05
-1.82656499003e-08
5.97132332178e-05
-2.80646588809e-08
5.97185891004e-05
-4.32118138862e-08
5.97262521726e-05
-6.67576380629e-08
5.97371237352e-05
-1.03569225276e-07
5.97522659777e-05
-1.61431303484e-07
5.97725159622e-05
-2.52775221891e-07
5.97972810443e-05
-3.97393485194e-07
5.98214034537e-05
-6.26180108179e-07
5.98280082762e-05
-9.85297146475e-07
5.97750598679e-05
-1.53705896109e-06
5.95746530566e-05
-2.34940121865e-06
5.90690050866e-05
-3.46642803716e-06
-4.79527341964e-06
5.80979861247e-05
5.14373053002e-05
2.75268321804e-06
5.42658203415e-05
6.98138581981e-06
5.72496428595e-05
9.13182334145e-06
5.97900270316e-05
9.52529812284e-06
6.17201273182e-05
8.8024701845e-06
6.30883020098e-05
7.53197983252e-06
6.40167152684e-05
6.10987762258e-06
6.46292347052e-05
4.76545101724e-06
6.50258012525e-05
3.60565371207e-06
6.52790753846e-05
2.66169484255e-06
6.54389699739e-05
1.92404027429e-06
6.55386863598e-05
1.36492199679e-06
6.55999244857e-05
9.51298407403e-07
6.56367389373e-05
6.51504498261e-07
6.56581897293e-05
4.38129759886e-07
6.56700976962e-05
2.8882719001e-07
6.56761867259e-05
1.86094158248e-07
6.56788228629e-05
1.16618810062e-07
6.56794931696e-05
7.05080022704e-08
6.56791168715e-05
4.05501244334e-08
6.56782494277e-05
2.15775723962e-08
6.56772185146e-05
9.94784023967e-09
6.56762093248e-05
3.13406905503e-09
6.56753001596e-05
-6.09332787975e-10
6.56745316364e-05
-2.45877331593e-09
6.56739034889e-05
-3.16456386851e-09
6.56734048399e-05
-3.22722821336e-09
6.56730181893e-05
-2.95751807476e-09
6.56727245239e-05
-2.54350662398e-09
6.5672505727e-05
-2.09414797855e-09
6.5672345653e-05
-1.66804542294e-09
6.56722306778e-05
-1.2929858548e-09
6.56721486584e-05
-9.78536775417e-10
6.56720889957e-05
-7.23615005588e-10
6.56720458944e-05
-5.20721134401e-10
6.56720151195e-05
-3.61752628592e-10
6.56719905385e-05
-2.37610792604e-10
6.56719694933e-05
-1.44395976045e-10
6.56719550401e-05
-7.59313364443e-11
6.56719538141e-05
-2.78309640629e-11
6.56719529585e-05
7.97120647364e-12
6.56719462365e-05
4.44848062918e-11
6.56719370799e-05
6.95608109768e-11
6.56719255523e-05
8.96325514742e-11
6.56719125529e-05
1.07171031869e-10
6.56718981621e-05
1.23308178178e-10
6.56718821672e-05
1.38607794811e-10
6.5671864458e-05
1.53141426854e-10
6.56718455235e-05
1.66364007322e-10
6.56718274242e-05
1.76359056046e-10
6.56718091194e-05
1.85508105738e-10
6.56717911172e-05
1.91002858649e-10
6.56717745915e-05
1.90367314606e-10
6.5671761318e-05
1.80170483197e-10
6.56717559163e-05
1.56002442276e-10
6.56717642441e-05
1.10774575958e-10
6.56717714023e-05
4.49542510114e-11
6.56718079666e-05
-9.82700035244e-11
6.56718770829e-05
-3.56599692841e-10
6.56719779393e-05
-7.39262008524e-10
6.56721310493e-05
-1.3168803415e-09
6.56723436777e-05
-2.1861361066e-09
6.56726326602e-05
-3.46836820222e-09
6.56730146241e-05
-5.37099380163e-09
6.56735006927e-05
-8.21287602526e-09
6.5674088889e-05
-1.24805256894e-08
6.5674749291e-05
-1.89249719546e-08
6.56753966959e-05
-2.87109693368e-08
6.56758307747e-05
-4.36448036275e-08
6.56756247384e-05
-6.65504848697e-08
6.56739102311e-05
-1.01853597115e-07
6.56689550219e-05
-1.56474965726e-07
6.56572274655e-05
-2.41046582438e-07
6.56316029126e-05
-3.7176800583e-07
6.55779372689e-05
-5.72513856451e-07
6.54690108199e-05
-8.76370299002e-07
6.52556810552e-05
-1.32372884643e-06
6.48579472787e-05
-1.95166689856e-06
6.41634194285e-05
-2.77189974863e-06
-3.71387760683e-06
6.30820240556e-05
5.10850422983e-05
1.66764085557e-06
5.36118443353e-05
4.45458362023e-06
5.66873161173e-05
6.056351426e-06
5.96894459576e-05
6.5231681134e-06
6.2299726375e-05
6.19218956874e-06
6.44136876977e-05
5.41801825171e-06
6.60471835557e-05
4.47638144634e-06
6.72686147651e-05
3.54401942203e-06
6.81598934286e-05
2.71437461061e-06
6.8797759637e-05
2.02382815832e-06
6.9246743632e-05
1.47505579293e-06
6.95579621241e-05
1.05370304142e-06
6.97704285133e-05
7.3883158499e-07
6.99131713607e-05
5.08761257964e-07
7.00073823391e-05
3.43918442684e-07
7.00682918606e-05
2.27917387074e-07
7.01066939242e-05
1.47691866459e-07
7.01301363149e-05
9.31762301379e-08
7.01438255693e-05
5.68185978114e-08
7.0151301837e-05
3.30737481403e-08
7.01549345173e-05
1.79448278771e-08
7.01562825428e-05
8.5998044763e-09
7.0156354725e-05
3.06194085629e-09
7.01557630163e-05
-1.75311185537e-11
7.01549025224e-05
-1.59811965725e-09
7.01539793156e-05
-2.24117385173e-09
7.01531111083e-05
-2.35881996632e-09
7.0152351526e-05
-2.19775836435e-09
7.01517177546e-05
-1.90961176291e-09
7.01512070004e-05
-1.58323451252e-09
7.01508062727e-05
-1.26718046749e-09
7.01504987126e-05
-9.85197828945e-10
7.01502666443e-05
-7.46222529544e-10
7.01500939077e-05
-5.50621582902e-10
7.01499675378e-05
-3.94026055089e-10
7.01498767939e-05
-2.70762475922e-10
7.01498146521e-05
-1.75148867834e-10
7.01497736229e-05
-1.02992248591e-10
7.01497456086e-05
-4.75344177507e-11
7.01497162804e-05
2.03037039898e-12
7.01496935457e-05
3.12163287963e-11
7.01496812541e-05
5.74051300472e-11
7.0149671617e-05
7.98627259272e-11
7.01496626799e-05
9.93223569217e-11
7.01496536917e-05
1.17034747885e-10
7.0149644309e-05
1.33734012941e-10
7.01496343058e-05
1.49682223543e-10
7.01496237022e-05
1.64851924263e-10
7.01496123281e-05
1.78830224428e-10
7.01495987572e-05
1.90983740905e-10
7.01495849329e-05
2.00359448026e-10
7.0149571747e-05
2.05198566495e-10
7.01495597637e-05
2.03129262837e-10
7.01495498795e-05
1.90758651525e-10
7.0149541078e-05
1.65053906177e-10
7.01495310132e-05
1.21813958618e-10
7.01495261225e-05
5.00746229619e-11
7.01495158588e-05
-8.65852886218e-11
7.01495289392e-05
-3.69015825544e-10
7.01495539132e-05
-7.63502353283e-10
7.01495789689e-05
-1.34148807735e-09
7.01495830565e-05
-2.18978348266e-09
7.0149539496e-05
-3.42430088332e-09
7.01493951515e-05
-5.22603784238e-09
7.01490512293e-05
-7.86818544162e-09
7.01483328143e-05
-1.17611777165e-08
7.01469385072e-05
-1.75295518943e-08
7.01443571674e-05
-2.61284355281e-08
7.01397153349e-05
-3.90017527997e-08
7.0131532795e-05
-5.83667539935e-08
7.01173211869e-05
-8.76408978707e-08
7.00929284367e-05
-1.3208121071e-07
7.00512694569e-05
-1.99386637129e-07
6.99803775454e-05
-3.00875288877e-07
6.98602987967e-05
-4.52434619426e-07
6.96586092077e-05
-6.74680279892e-07
6.93254290972e-05
-9.90548471699e-07
6.87912637311e-05
-1.41750111098e-06
6.79736079887e-05
-1.95424365515e-06
-2.55476345693e-06
6.68144942203e-05
5.08804131396e-05
7.87227643749e-07
5.31704659677e-05
2.1645306084e-06
5.62177493879e-05
3.0090678484e-06
5.94382692188e-05
3.30264808634e-06
6.24449688363e-05
3.18548972561e-06
6.50382519972e-05
2.82473480464e-06
6.71548652584e-05
2.35976784472e-06
6.88135633819e-05
1.88532089064e-06
7.00731689618e-05
1.45476856962e-06
7.10056654698e-05
1.09133115386e-06
7.16812612996e-05
7.99459458082e-07
7.21614202121e-05
5.73543641055e-07
7.24966007356e-05
4.03650619116e-07
7.27264769337e-05
2.7888467152e-07
7.28812755267e-05
1.89119518241e-07
7.29834650294e-05
1.25727613521e-07
7.30494086062e-05
8.1748072755e-08
7.30908105462e-05
5.17741164588e-08
7.31159043606e-05
3.17246505306e-08
7.31303887873e-05
1.8589229484e-08
7.3138143458e-05
1.01901079142e-08
7.31417638969e-05
4.9793615894e-09
7.3142951652e-05
1.87422296854e-09
7.31428053729e-05
1.28846664299e-10
7.31419822872e-05
-7.74921791967e-10
7.31408995563e-05
-1.15831768143e-09
7.31397848902e-05
-1.24400917415e-09
7.31387576597e-05
-1.17039344452e-09
7.31378703314e-05
-1.02212307594e-09
7.31371368493e-05
-8.49562950946e-10
7.31365497838e-05
-6.79974744524e-10
7.31360918262e-05
-5.27049474836e-10
7.31357420849e-05
-3.96258143134e-10
7.31354799425e-05
-2.88196938338e-10
7.31352870536e-05
-2.0078593157e-10
7.31351477443e-05
-1.31069562584e-10
7.31350487906e-05
-7.57572518618e-11
7.31349776519e-05
-3.13813383736e-11
7.3134924942e-05
5.55463051605e-12
7.31348957389e-05
3.17208537367e-11
7.31348732127e-05
5.4219912387e-11
7.31348570585e-05
7.4072691017e-11
7.3134845453e-05
9.20806765095e-11
7.31348365958e-05
1.08915009197e-10
7.31348292102e-05
1.25259889178e-10
7.31348224064e-05
1.41459993654e-10
7.31348155259e-05
1.57524056579e-10
7.31348081127e-05
1.73228235004e-10
7.31347998712e-05
1.88007147324e-10
7.31347907603e-05
2.00984291692e-10
7.313478089e-05
2.11129282888e-10
7.31347704067e-05
2.16691965861e-10
7.31347591401e-05
2.15047572306e-10
7.31347478372e-05
2.03256571017e-10
7.3134736808e-05
1.76825610749e-10
7.31347271556e-05
1.31912107732e-10
7.31347122676e-05
6.65887165109e-11
7.31346904513e-05
-6.44001465413e-11
7.31346506125e-05
-3.28224982675e-10
7.31345862197e-05
-6.9839710533e-10
7.3134473684e-05
-1.22840751912e-09
7.3134270009e-05
-1.98546586949e-09
7.31339072205e-05
-3.06087311087e-09
7.31332705127e-05
-4.5886005103e-09
7.31321670392e-05
-6.7638858697e-09
7.31302752838e-05
-9.86844740975e-09
7.31270678222e-05
-1.43209902021e-08
7.3121689959e-05
-2.07493733048e-08
7.31127297708e-05
-3.0040290004e-08
7.30978833479e-05
-4.3519112786e-08
7.30734438885e-05
-6.32003534785e-08
7.30335160933e-05
-9.21524737704e-08
7.29685899815e-05
-1.34459678974e-07
7.28636528283e-05
-1.95937431956e-07
7.26955457825e-05
-2.84327152537e-07
7.24297805182e-05
-4.08914717447e-07
7.20180137471e-05
-5.78781515856e-07
7.13990755965e-05
-7.98562569653e-07
7.05074529909e-05
-1.06262072354e-06
-1.34588096172e-06
6.92985708259e-05
5.07871725536e-05
5.5004044957e-11
5.29516496488e-05
5.33017145061e-11
5.59606881252e-05
2.91865499971e-11
5.92633214031e-05
1.45840722973e-11
6.2448807735e-05
3.13634019997e-12
6.52735479626e-05
-5.74805225017e-12
6.76333271053e-05
-1.16765681881e-11
6.95186622161e-05
-1.46559641316e-11
7.09734454289e-05
-1.51285874876e-11
7.20647897566e-05
-1.3688901608e-11
7.28642596692e-05
-1.09667777091e-11
7.3437810438e-05
-7.61594381562e-12
7.38414649084e-05
-4.28981742027e-12
7.41203508358e-05
-1.63302636678e-12
7.43094702649e-05
-2.28044123073e-13
7.44351981059e-05
-4.85928668768e-13
7.45169486158e-05
-2.64727869692e-12
7.45687290393e-05
-6.47579365816e-12
7.46004648937e-05
-1.13315491353e-11
7.46190702717e-05
-1.62341659292e-11
7.46292803939e-05
-2.00550155695e-11
7.46342814574e-05
-2.16925774288e-11
7.46361764167e-05
-2.06893361378e-11
7.46363236561e-05
-1.83190378547e-11
7.46355646008e-05
-1.57621668072e-11
7.46344190082e-05
-1.25952381478e-11
7.46331841332e-05
-8.98917719526e-12
7.46320189018e-05
-5.04670351066e-12
7.4630997116e-05
-2.51431003085e-13
7.46301438962e-05
3.76847181892e-12
7.46294557127e-05
8.33667696874e-12
7.46289156129e-05
1.32508187053e-11
7.46285012034e-05
1.84432165493e-11
7.4628189402e-05
2.39975257104e-11
7.46279589647e-05
3.00909995451e-11
7.46277915395e-05
3.68206332193e-11
7.46276719611e-05
4.42842554216e-11
7.46275884747e-05
5.24203364225e-11
7.46275331291e-05
6.13700743624e-11
7.46274945828e-05
7.06524595065e-11
7.46274689724e-05
8.02606541063e-11
7.46274524697e-05
9.11072290781e-11
7.46274421167e-05
1.03084533761e-10
7.46274356784e-05
1.16103837307e-10
7.46274316065e-05
1.30167165821e-10
7.46274288041e-05
1.45146372845e-10
7.46274265021e-05
1.60757733159e-10
7.46274241225e-05
1.76542394669e-10
7.46274212107e-05
1.9182628486e-10
7.46274174074e-05
2.05664018704e-10
7.46274126348e-05
2.16882537519e-10
7.46274065976e-05
2.23726184445e-10
7.46273989641e-05
2.23686864697e-10
7.46273890769e-05
2.14038206461e-10
7.46273754736e-05
1.91352337219e-10
7.46273572368e-05
1.51713122439e-10
7.46273327663e-05
9.17468959483e-11
7.46272882389e-05
-1.92971691702e-11
7.46272016291e-05
-2.40683418671e-10
7.46270673147e-05
-5.63194681265e-10
7.46268458095e-05
-1.00623751575e-09
7.46264765778e-05
-1.61548840082e-09
7.46258634063e-05
-2.44695573392e-09
7.46248497091e-05
-3.57407969369e-09
7.46231805587e-05
-5.09382073306e-09
7.46204396511e-05
-7.12649129937e-09
7.46159601319e-05
-9.8403390354e-09
7.46086848087e-05
-1.34728678584e-08
7.45968783494e-05
-1.82326073977e-08
7.45777412279e-05
-2.43807883991e-08
7.45468557412e-05
-3.2313779534e-08
7.44974967249e-05
-4.27925279976e-08
7.44189334391e-05
-5.58955771578e-08
7.42947759742e-05
-7.17793408294e-08
7.41006581033e-05
-9.02089150649e-08
7.38017819484e-05
-1.10038302489e-07
7.3351513428e-05
-1.2851286499e-07
7.26934181043e-05
-1.40466857106e-07
7.17695150387e-05
-1.38717263889e-07
-1.1477896016e-07
7.05384133781e-05
5.07871715212e-05
-7.87116612922e-07