/*--------------------------------*- C++ -*----------------------------------*\
| =========                 |                                                 |
| \\      /  F ield         | OpenFOAM: The Open Source CFD Toolbox           |
|  \\    /   O peration     | Version:  2106                                  |
|   \\  /    A nd           | Website:  www.openfoam.com                      |
|    \\/     M anipulation  |                                                 |
\*---------------------------------------------------------------------------*/
FoamFile
{
    version     2.0;
    format      ascii;
    arch        "LSB;label=32;scalar=64";
    class       volVectorField;
    location    "0.4";
    object      U;
}
// * * * * * * * * * * * * * * * * * * * * * * * * * * * * * * * * * * * * * //

dimensions      [0 1 -1 0 0 0 0];

internalField   nonuniform List<vector> 
11200
(
(0.662462404098 0.150569443778 0)
(0.55894867372 0.10324338974 0)
(0.383850738026 0.0513512257591 0)
(0.283747596862 0.0248708568711 0)
(0.232075272829 0.012417046881 0)
(0.201908590596 0.00662281863228 0)
(0.183197937523 0.0038029163532 0)
(0.171276492836 0.00231587212059 0)
(0.163510308785 0.00146450873298 0)
(0.158388768953 0.000944894658057 0)
(0.155006625792 0.000615179115405 0)
(0.152786665278 0.000402235926482 0)
(0.151346509084 0.000264234192771 0)
(0.150428265963 0.000175251952964 0)
(0.149856655954 0.000118362277288 0)
(0.149512449354 8.21613242155e-05 0)
(0.149314884042 5.88669524519e-05 0)
(0.149209517756 4.33165217917e-05 0)
(0.149159653772 3.29350766436e-05 0)
(0.149142408433 2.8186635623e-05 0)
(0.149144557795 2.76844924237e-05 0)
(0.149156826226 2.98899766357e-05 0)
(0.149172440163 3.30502003557e-05 0)
(0.149187979959 3.59656924164e-05 0)
(0.149202181468 3.86011671023e-05 0)
(0.149214444871 4.1040249673e-05 0)
(0.149224602411 4.33175789504e-05 0)
(0.149232760729 4.54643127058e-05 0)
(0.149239156231 4.75197137176e-05 0)
(0.149244070789 4.95308829531e-05 0)
(0.14924778925 5.15598025826e-05 0)
(0.149250578863 5.36971638054e-05 0)
(0.149252636748 5.6025952388e-05 0)
(0.149254132833 5.84074829695e-05 0)
(0.149255199227 6.07681139979e-05 0)
(0.149255923661 6.30891131133e-05 0)
(0.149256402161 6.53798324485e-05 0)
(0.149256718519 6.76546374591e-05 0)
(0.149256927783 6.99240030396e-05 0)
(0.149257058678 7.21943559052e-05 0)
(0.149257132847 7.44666654199e-05 0)
(0.14925716783 7.674202454e-05 0)
(0.149257176221 7.90202106181e-05 0)
(0.149257166922 8.12999368441e-05 0)
(0.149257145825 8.3579580738e-05 0)
(0.149257117534 8.58569979737e-05 0)
(0.149257085307 8.81291386403e-05 0)
(0.149257052461 9.03930487552e-05 0)
(0.149257023468 9.26455600337e-05 0)
(0.149257003014 9.48836876128e-05 0)
(0.149256997531 9.71042770678e-05 0)
(0.149257017033 9.93044155832e-05 0)
(0.149257075121 0.000101480845313 0)
(0.149257190348 0.000103630257618 0)
(0.149257388644 0.000105748349212 0)
(0.149257706068 0.000107829505207 0)
(0.149258194046 0.000109866504084 0)
(0.149258928538 0.000111849303343 0)
(0.14926001857 0.000113765660625 0)
(0.149261623737 0.000115590343044 0)
(0.149263992514 0.00011726738457 0)
(0.149267532086 0.000118713513885 0)
(0.149272708713 0.000119970110804 0)
(0.149280170826 0.000121231529658 0)
(0.149290953621 0.000122962086008 0)
(0.149306580127 0.000125337250659 0)
(0.149329437941 0.000128117169133 0)
(0.149363221844 0.000131077261463 0)
(0.149413525831 0.000134001774407 0)
(0.14948857849 0.000136778229143 0)
(0.149600314983 0.000140686788034 0)
(0.149771576633 0.000151554776295 0)
(0.150040124675 0.00017227623338 0)
(0.150469103384 0.000202519247247 0)
(0.151194303763 0.000232436876716 0)
(0.152493345312 0.000191634879782 0)
(0.155022326054 -0.00021676088815 0)
(0.16237542502 -0.00210990915729 0)
(0.18770255779 -0.0107876278299 0)
(0.204355477658 -0.0496550865836 0)
(0.965408254382 0.289214708907 0)
(0.961962858895 0.252656042652 0)
(0.823574389937 0.159021444653 0)
(0.698139364954 0.0959957345329 0)
(0.610225457477 0.0582481176752 0)
(0.548971482189 0.03621485705 0)
(0.506588875016 0.0231612893457 0)
(0.477567249371 0.0151375198404 0)
(0.457745464857 0.0100177599214 0)
(0.444228425317 0.00665814602176 0)
(0.435053253688 0.00441556102052 0)
(0.428873063202 0.00290687029075 0)
(0.424754136692 0.00189106237742 0)
(0.4220465768 0.00121004873265 0)
(0.42029773034 0.000757166225222 0)
(0.419193112652 0.000459258018784 0)
(0.41851549982 0.000265856319557 0)
(0.418116346069 0.000142400580768 0)
(0.417895736366 6.61097981956e-05 0)
(0.417786679501 2.3092049329e-05 0)
(0.417745259219 1.40698034737e-06 0)
(0.417741977261 -1.01636082159e-05 0)
(0.417756571771 -1.37151041099e-05 0)
(0.417778528517 -1.32685186172e-05 0)
(0.417802822434 -1.08361170348e-05 0)
(0.417826194179 -7.4927824435e-06 0)
(0.417846950266 -3.87612038271e-06 0)
(0.417864491729 -3.56281551434e-07 0)
(0.417878822187 2.86522832547e-06 0)
(0.417890256875 5.68451307708e-06 0)
(0.41789926717 8.0369622176e-06 0)
(0.41790634656 9.83869086688e-06 0)
(0.41791169727 1.10077688599e-05 0)
(0.417915552319 1.18607455264e-05 0)
(0.417918289698 1.26811228833e-05 0)
(0.417920185523 1.34385665007e-05 0)
(0.41792148159 1.41116391151e-05 0)
(0.417922369017 1.47271193107e-05 0)
(0.417922974777 1.53124504272e-05 0)
(0.4179233705 1.58815332144e-05 0)
(0.41792360949 1.64348545436e-05 0)
(0.41792373571 1.69771907946e-05 0)
(0.417923780106 1.75127584573e-05 0)
(0.417923765359 1.80447228382e-05 0)
(0.417923707675 1.85761356725e-05 0)
(0.417923619012 1.91095003268e-05 0)
(0.417923508978 1.96464605313e-05 0)
(0.41792338752 2.01891399842e-05 0)
(0.417923266397 2.07393360921e-05 0)
(0.417923158706 2.1299088845e-05 0)
(0.417923081951 2.18684735353e-05 0)
(0.417923061181 2.2447869132e-05 0)
(0.417923130661 2.30369516624e-05 0)
(0.417923337442 2.36353847358e-05 0)
(0.417923747005 2.4242441764e-05 0)
(0.417924451689 2.4857676219e-05 0)
(0.417925583523 2.54779941397e-05 0)
(0.417927337996 2.60920058763e-05 0)
(0.417929992766 2.66817598372e-05 0)
(0.417933938672 2.72175490977e-05 0)
(0.417939782234 2.7646814401e-05 0)
(0.417948621531 2.79240794091e-05 0)
(0.417961941821 2.82093939449e-05 0)
(0.417981883968 2.77462492059e-05 0)
(0.418011209747 2.51221711892e-05 0)
(0.418053529025 1.92809698864e-05 0)
(0.418115039796 9.41465912891e-06 0)
(0.418205859721 -6.00978840374e-06 0)
(0.4183415902 -2.95177418274e-05 0)
(0.418547124109 -6.47888299868e-05 0)
(0.418864352567 -0.000116011428758 0)
(0.419362859751 -0.000188151746994 0)
(0.420156095915 -0.000307924522095 0)
(0.421447692161 -0.000532882351276 0)
(0.42362923587 -0.000999826541527 0)
(0.427419307447 -0.00209040577151 0)
(0.43423983926 -0.00485604450921 0)
(0.448265349438 -0.0122529547054 0)
(0.474642073313 -0.0342388420262 0)
(0.478159386631 -0.098761409883 0)
(1.02222096545 0.23841618908 0)
(1.08213752978 0.29592665526 0)
(1.03447722633 0.239503069453 0)
(0.95461540835 0.17429016792 0)
(0.87999205357 0.121345472224 0)
(0.818614431769 0.0830993883201 0)
(0.771410844169 0.0567316717489 0)
(0.736634380817 0.0387409734681 0)
(0.71162441826 0.0264327921207 0)
(0.693916601217 0.0179731097621 0)
(0.681541385538 0.0121424527091 0)
(0.673000086631 0.00812491242368 0)
(0.667180614967 0.0053663245405 0)
(0.663271638611 0.00348444746242 0)
(0.660688461304 0.0022125633976 0)
(0.65901413122 0.00136338286937 0)
(0.657954444954 0.000805244256624 0)
(0.657304146912 0.000445916416893 0)
(0.65692172351 0.000221067578799 0)
(0.65671015332 8.55794828306e-05 0)
(0.656603284732 8.35583590195e-06 0)
(0.656561731854 -3.37216182031e-05 0)
(0.656557827897 -5.68557895213e-05 0)
(0.656571301084 -6.68744510036e-05 0)
(0.656592829376 -6.84813000196e-05 0)
(0.656616649087 -6.55591626081e-05 0)
(0.656639452708 -6.05474372592e-05 0)
(0.656659633117 -5.48569454234e-05 0)
(0.656676604855 -4.92722436399e-05 0)
(0.656690345505 -4.42003471591e-05 0)
(0.656701101847 -3.98360947457e-05 0)
(0.656709258282 -3.6297522705e-05 0)
(0.656715510499 -3.36908357434e-05 0)
(0.656720546614 -3.18540637071e-05 0)
(0.656724412835 -3.08073617493e-05 0)
(0.656727124488 -3.03005823701e-05 0)
(0.656728991176 -3.02457750544e-05 0)
(0.656730294283 -3.05570379651e-05 0)
(0.656731200775 -3.10847522327e-05 0)
(0.656731801244 -3.17467927615e-05 0)
(0.656732170123 -3.25132740411e-05 0)
(0.656732373437 -3.33494557825e-05 0)
(0.656732457023 -3.42304335637e-05 0)
(0.656732454621 -3.51374466352e-05 0)
(0.656732390783 -3.6054937438e-05 0)
(0.656732283949 -3.69719937699e-05 0)
(0.65673214962 -3.78814525708e-05 0)
(0.656732003148 -3.87774969526e-05 0)
(0.656731861736 -3.9655678384e-05 0)
(0.656731743365 -4.05105522777e-05 0)
(0.656731672261 -4.13389641277e-05 0)
(0.656731684231 -4.21364628463e-05 0)
(0.656731828558 -4.2901310163e-05 0)
(0.656732174216 -4.36372413618e-05 0)
(0.656732818861 -4.43585298632e-05 0)
(0.656733898811 -4.5095869798e-05 0)
(0.656735603454 -4.59058730265e-05 0)
(0.656738211956 -4.68815554773e-05 0)
(0.656742134247 -4.81507762587e-05 0)
(0.656747967984 -4.99311790166e-05 0)
(0.656756652461 -5.27419363789e-05 0)
(0.656769838291 -5.75687772165e-05 0)
(0.656788827017 -6.52283223443e-05 0)
(0.656815063788 -7.65768232514e-05 0)
(0.656852414553 -9.33149346094e-05 0)
(0.656907593042 -0.000117832352209 0)
(0.656989970427 -0.000153334515186 0)
(0.657113338464 -0.000205108888229 0)
(0.657299515368 -0.000281674848712 0)
(0.657583895297 -0.000396905438498 0)
(0.658024603707 -0.000575147408638 0)
(0.658710824736 -0.000863660685729 0)
(0.659789594953 -0.00135250324394 0)
(0.661518419018 -0.00221476529849 0)
(0.664339388312 -0.00381293175966 0)
(0.668948128047 -0.0069456827033 0)
(0.676370297217 -0.0133514129839 0)
(0.688613357465 -0.0268406648961 0)
(0.705235718683 -0.0563130159735 0)
(0.700484286655 -0.113069350339 0)
(1.02251475459 0.170807154962 0)
(1.10138975724 0.276496481705 0)
(1.11752426079 0.266664802959 0)
(1.09214660424 0.21990170328 0)
(1.05187815308 0.168168852403 0)
(1.01020821881 0.123567401805 0)
(0.9734946812 0.0888375269988 0)
(0.943864541087 0.0630063771685 0)
(0.921142778033 0.0442232097398 0)
(0.904284043574 0.0307423982276 0)
(0.892074831444 0.0211562991736 0)
(0.883404464953 0.0143954729381 0)
(0.877352616986 0.00966795181453 0)
(0.873197646806 0.00639383991925 0)
(0.870392863437 0.00415116651304 0)
(0.868533968803 0.00263449150256 0)
(0.8673275666 0.00162401690527 0)
(0.866564158341 0.00096267453074 0)
(0.866096396151 0.000539120133256 0)
(0.865822149536 0.000275150627765 0)
(0.865671301888 0.000117065119475 0)
(0.865595048213 2.87890690288e-05 0)
(0.865563988051 -1.93277524536e-05 0)
(0.865561179052 -4.12634999104e-05 0)
(0.865572523496 -4.76668327623e-05 0)
(0.865589531734 -4.55252806988e-05 0)
(0.865607844457 -3.91547480828e-05 0)
(0.865625187424 -3.11428673134e-05 0)
(0.865640476649 -2.29607926927e-05 0)
(0.865653345032 -1.53764120211e-05 0)
(0.86566382427 -8.71827308399e-06 0)
(0.86567211771 -3.03942293993e-06 0)
(0.865678475653 1.73818659765e-06 0)
(0.865683108808 5.4680044514e-06 0)
(0.865686435132 8.03538100984e-06 0)
(0.865688839209 9.79118543759e-06 0)
(0.865690477784 1.11446372417e-05 0)
(0.865691647057 1.22895126263e-05 0)
(0.865692522715 1.32580270782e-05 0)
(0.865693123527 1.41448980795e-05 0)
(0.865693498341 1.4940243828e-05 0)
(0.865693712125 1.56671152719e-05 0)
(0.865693803939 1.63410800384e-05 0)
(0.865693805235 1.69777221296e-05 0)
(0.865693738745 1.75923100949e-05 0)
(0.865693620165 1.81948659705e-05 0)
(0.865693463889 1.87928947445e-05 0)
(0.865693286262 1.93924550855e-05 0)
(0.865693107867 2.00008178479e-05 0)
(0.86569295122 2.06286222881e-05 0)
(0.86569284656 2.12605270716e-05 0)
(0.865692836266 2.18832416272e-05 0)
(0.865692973561 2.24803298804e-05 0)
(0.865693328615 2.30258643607e-05 0)
(0.865693996368 2.34839277915e-05 0)
(0.86569510818 2.38198343723e-05 0)
(0.865696850878 2.39905514822e-05 0)
(0.865699516808 2.38790116965e-05 0)
(0.86570351128 2.33396359601e-05 0)
(0.865709248791 2.19580841776e-05 0)
(0.865717213982 1.91683563689e-05 0)
(0.865729023147 1.42527941506e-05 0)
(0.865747256891 5.38822338347e-06 0)
(0.865774892919 -9.0018092738e-06 0)
(0.865815798349 -3.09169602967e-05 0)
(0.865875899435 -6.4323546202e-05 0)
(0.865964537977 -0.000116096364575 0)
(0.866096229216 -0.000196993977107 0)
(0.866293522496 -0.000324271739693 0)
(0.866591233704 -0.00052639703753 0)
(0.867042957991 -0.000852304197298 0)
(0.867733742936 -0.0013889089024 0)
(0.86879990547 -0.0022849432775 0)
(0.870454640283 -0.00381493221504 0)
(0.873016726691 -0.00650300918188 0)
(0.876884881243 -0.0113583786401 0)
(0.882381330342 -0.020249743121 0)
(0.889688877179 -0.036447106501 0)
(0.896362027761 -0.06548119364 0)
(0.886530368512 -0.11002295711 0)
(1.01287875078 0.118961026681 0)
(1.08820670686 0.231806941041 0)
(1.13741366898 0.253106769678 0)
(1.15409086333 0.228992759415 0)
(1.14994210234 0.188368365412 0)
(1.13538464481 0.146579850976 0)
(1.11758893381 0.110150972919 0)
(1.10059498243 0.08081622933 0)
(1.08612454517 0.0582265833681 0)
(1.0745908912 0.0413189914757 0)
(1.06579142553 0.0289160260091 0)
(1.05928793972 0.0199601048985 0)
(1.05459970679 0.0135815640671 0)
(1.05129070142 0.00909744609637 0)
(1.04899977702 0.00598615577448 0)
(1.04744332802 0.00385696720624 0)
(1.04640644941 0.00242159763608 0)
(1.04573052939 0.0014701489223 0)
(1.0453009695 0.000851700089945 0)
(1.04503646813 0.000459014010645 0)
(1.0448801019 0.000216754283543 0)
(1.04479248274 7.30152816262e-05 0)
(1.04474861587 -5.5061360399e-06 0)
(1.04473171616 -4.40096474429e-05 0)
(1.04472946657 -5.93858767193e-05 0)
(1.04473495296 -6.17185221232e-05 0)
(1.04474390419 -5.7243932776e-05 0)
(1.04475379205 -4.98011197745e-05 0)
(1.04476323657 -4.16413010575e-05 0)
(1.04477156746 -3.3985680568e-05 0)
(1.04477853463 -2.74206914181e-05 0)
(1.0447841254 -2.21494117792e-05 0)
(1.04478848582 -1.81278665037e-05 0)
(1.04479182735 -1.51387747534e-05 0)
(1.04479440425 -1.28087822271e-05 0)
(1.04479651049 -1.10129621634e-05 0)
(1.04479825703 -9.52386872641e-06 0)
(1.04479958871 -8.23452804902e-06 0)
(1.0448005769 -7.21509878858e-06 0)
(1.0448012728 -6.54567027373e-06 0)
(1.04480169788 -6.16587806643e-06 0)
(1.04480194055 -5.95664731158e-06 0)
(1.04480204601 -5.86740016204e-06 0)
(1.04480205294 -5.84982324433e-06 0)
(1.04480198663 -5.86273625421e-06 0)
(1.04480186411 -5.8870523323e-06 0)
(1.04480170247 -5.91270231949e-06 0)
(1.04480152176 -5.93494796589e-06 0)
(1.0448013486 -5.95700963686e-06 0)
(1.04480118915 -5.99301753837e-06 0)
(1.04480105745 -6.02550575577e-06 0)
(1.04480099983 -6.05274862739e-06 0)
(1.0448010717 -6.08123407803e-06 0)
(1.04480134932 -6.12563800896e-06 0)
(1.04480195607 -6.22796603308e-06 0)
(1.04480306943 -6.50925970948e-06 0)
(1.04480487909 -7.21810090529e-06 0)
(1.04480768205 -8.64218039307e-06 0)
(1.04481178691 -1.12676995581e-05 0)
(1.04481766779 -1.51069014935e-05 0)
(1.04482633485 -2.00419679386e-05 0)
(1.0448389435 -2.62892096189e-05 0)
(1.04485679438 -3.61192394711e-05 0)
(1.04488218772 -5.25147732471e-05 0)
(1.04491859467 -7.96908956186e-05 0)
(1.04497117205 -0.000123891369038 0)
(1.04504752385 -0.000194883018037 0)
(1.04515899994 -0.000308243347125 0)
(1.04532274789 -0.000489133339782 0)
(1.04556463016 -0.000778567643142 0)
(1.04592332027 -0.00124384852536 0)
(1.04645666031 -0.00199659108252 0)
(1.04724874202 -0.00322728844403 0)
(1.04841247018 -0.00526663750103 0)
(1.05007508877 -0.00869133518123 0)
(1.05229316571 -0.0144948674439 0)
(1.05482261137 -0.0242838305835 0)
(1.05687378412 -0.0403674565317 0)
(1.05574104669 -0.065584069444 0)
(1.04212771149 -0.0994355241673 0)
(1.0044748343 0.0814040014839 0)
(1.06917237181 0.181288543955 0)
(1.13080568399 0.216950424766 0)
(1.17374999933 0.210789162295 0)
(1.19865264532 0.183690084148 0)
(1.2101998709 0.149751690868 0)
(1.21350254477 0.116779151656 0)
(1.21251722294 0.0882206851808 0)
(1.20973095936 0.0650481577453 0)
(1.20651116555 0.0470209149644 0)
(1.20351909477 0.0334068136776 0)
(1.2010114058 0.0233557366359 0)
(1.19903439769 0.0160720168701 0)
(1.19753871895 0.0108795156276 0)
(1.19644124769 0.00723418888613 0)
(1.19565551295 0.00471351836064 0)
(1.1951048118 0.00299762815622 0)
(1.19472639402 0.00184915926295 0)
(1.19447140862 0.00109495832585 0)
(1.19430309427 0.000610609040391 0)
(1.19419445149 0.000307984250948 0)
(1.19412616406 0.00012576652607 0)
(1.19408511238 2.22218339552e-05 0)
(1.19406185271 -3.24523485732e-05 0)
(1.19404955264 -5.72699616201e-05 0)
(1.19404405521 -6.45946541018e-05 0)
(1.19404255928 -6.2371902103e-05 0)
(1.19404324607 -5.55165273906e-05 0)
(1.1940449996 -4.6939071778e-05 0)
(1.19404716168 -3.82531300065e-05 0)
(1.19404936062 -3.02596086886e-05 0)
(1.19405140346 -2.3263733108e-05 0)
(1.19405322172 -1.72886224127e-05 0)
(1.1940548101 -1.22611172435e-05 0)
(1.19405618454 -8.07393582344e-06 0)
(1.19405736441 -4.67321305767e-06 0)
(1.1940583213 -2.06280411181e-06 0)
(1.19405900279 -1.73773029538e-07 0)
(1.19405936869 1.14442267865e-06 0)
(1.19405949386 2.00062951679e-06 0)
(1.19405956114 2.67892667494e-06 0)
(1.19405960782 3.28190041839e-06 0)
(1.19405960663 3.807375905e-06 0)
(1.1940595749 4.26697922594e-06 0)
(1.19405950907 4.67141844934e-06 0)
(1.19405939911 5.03696220242e-06 0)
(1.19405924834 5.37600489327e-06 0)
(1.19405906376 5.69183130201e-06 0)
(1.19405885292 5.97609347945e-06 0)
(1.19405865754 6.21107677326e-06 0)
(1.19405852561 6.42072533206e-06 0)
(1.19405848656 6.59867009384e-06 0)
(1.19405858961 6.71810562868e-06 0)
(1.19405888982 6.73791774826e-06 0)
(1.19405941628 6.59585761831e-06 0)
(1.19406016076 6.20559596546e-06 0)
(1.19406121231 5.40788288268e-06 0)
(1.19406272169 3.81244468093e-06 0)
(1.19406538939 1.03274183164e-06 0)
(1.19407023381 -3.24311028936e-06 0)
(1.19407775335 -9.79206607006e-06 0)
(1.19408789574 -1.99895713126e-05 0)
(1.19410144926 -3.58590548474e-05 0)
(1.19412040479 -6.03205022176e-05 0)
(1.19414688908 -9.79558546569e-05 0)
(1.19418373082 -0.000156084460289 0)
(1.1942349247 -0.000246351522387 0)
(1.19430610771 -0.000387235641316 0)
(1.19440517081 -0.000608192708959 0)
(1.1945428979 -0.000956550462689 0)
(1.19473333747 -0.00150880990921 0)
(1.19499326533 -0.00238923371784 0)
(1.19533749985 -0.00380101334567 0)
(1.19576329952 -0.00607701392536 0)
(1.19621032976 -0.00975596536415 0)
(1.19645886188 -0.0156814907924 0)
(1.19592211122 -0.0250641794911 0)
(1.1934456473 -0.0393592175852 0)
(1.1866946263 -0.0598089482343 0)
(1.17015119248 -0.0851025452476 0)
(0.998962325277 0.0544316298505 0)
(1.0531095669 0.133401613393 0)
(1.11628267915 0.170777564996 0)
(1.17301271475 0.175143879485 0)
(1.21791245564 0.159583614179 0)
(1.25049856938 0.134951028098 0)
(1.27288489805 0.108411664756 0)
(1.28776720288 0.0838849794343 0)
(1.29745265528 0.0630565794555 0)
(1.3036607186 0.0462999277545 0)
(1.30759230411 0.0333205202697 0)
(1.3100536544 0.0235495284377 0)
(1.31157357129 0.0163599111176 0)
(1.31249486764 0.0111713173832 0)
(1.31303855514 0.00749150784095 0)
(1.31334664213 0.00492448594765 0)
(1.31351005219 0.0031629542272 0)
(1.31358667886 0.00197474992897 0)
(1.3136130525 0.00118819413998 0)
(1.31361190091 0.000678626012648 0)
(1.313597062 0.000357005033223 0)
(1.31357674053 0.000160750957938 0)
(1.31355574699 4.64668103798e-05 0)
(1.3135364536 -1.58707183758e-05 0)
(1.31351979894 -4.60581035251e-05 0)
(1.31350611461 -5.70670694204e-05 0)
(1.31349521549 -5.73209888116e-05 0)
(1.31348676413 -5.20819096077e-05 0)
(1.31348037171 -4.45193513985e-05 0)
(1.3134756532 -3.64578611618e-05 0)
(1.31347225794 -2.88702399234e-05 0)
(1.31346988269 -2.22108065478e-05 0)
(1.31346826858 -1.66292862379e-05 0)
(1.31346718724 -1.21339954109e-05 0)
(1.31346647328 -8.65867798346e-06 0)
(1.31346602912 -6.10146247011e-06 0)
(1.31346575322 -4.32592629348e-06 0)
(1.31346555644 -3.12328703255e-06 0)
(1.31346543593 -2.26542000412e-06 0)
(1.31346547718 -1.54800486425e-06 0)
(1.31346564407 -9.70871916343e-07 0)
(1.31346575831 -5.57242743788e-07 0)
(1.31346576985 -1.98820554298e-07 0)
(1.313465712 1.35878965364e-07 0)
(1.31346560418 4.43614228087e-07 0)
(1.31346545941 7.33069203357e-07 0)
(1.31346528119 1.01633865503e-06 0)
(1.31346507106 1.30258136006e-06 0)
(1.31346483858 1.60132153148e-06 0)
(1.31346461717 1.91715975651e-06 0)
(1.31346443035 2.19930169632e-06 0)
(1.31346428617 2.40901884712e-06 0)
(1.31346421567 2.50227594483e-06 0)
(1.3134642712 2.41294962093e-06 0)
(1.3134645476 2.06027342487e-06 0)
(1.31346515458 1.35848064727e-06 0)
(1.31346605326 2.43723027847e-07 0)
(1.31346737287 -1.44518002297e-06 0)
(1.31346952386 -3.96813666261e-06 0)
(1.31347270352 -8.0555981504e-06 0)
(1.31347713259 -1.49835691413e-05 0)
(1.31348304241 -2.63180285613e-05 0)
(1.31349071781 -4.36570278994e-05 0)
(1.31350064833 -7.01807639941e-05 0)
(1.3135131543 -0.000110917968059 0)
(1.31352832549 -0.000173616607065 0)
(1.31354578866 -0.00027035976781 0)
(1.31356424028 -0.000420101802714 0)
(1.31358050301 -0.000652655160344 0)
(1.31358768774 -0.00101523104361 0)
(1.31357175632 -0.00158281404583 0)
(1.31350529892 -0.00247442169533 0)
(1.31333413623 -0.00387724735645 0)
(1.31295076495 -0.00608355084545 0)
(1.31214528886 -0.00953765075275 0)
(1.31051252562 -0.0148808139745 0)
(1.30729942375 -0.0229408861598 0)
(1.30129687196 -0.0345576495233 0)
(1.29063797366 -0.050167735544 0)
(1.27185218604 -0.0685437555165 0)
(0.995736073893 0.0346338647105 0)
(1.04179514317 0.0905689272553 0)
(1.10222838639 0.12154957208 0)
(1.16491411536 0.12960584183 0)
(1.22202566136 0.122009276479 0)
(1.26951891664 0.106019946474 0)
(1.30680223129 0.0870975639298 0)
(1.3349953431 0.0686366886501 0)
(1.35574475921 0.0523698460327 0)
(1.3706961465 0.0389256241688 0)
(1.38128272787 0.0282980786037 0)
(1.38866264311 0.0201712812788 0)
(1.39373029301 0.0141175133563 0)
(1.39715656114 0.00970533785977 0)
(1.39943429742 0.00655059608951 0)
(1.40091961477 0.00433445450615 0)
(1.40186615729 0.00280414390841 0)
(1.40245217467 0.00176574140654 0)
(1.40280126973 0.00107419292671 0)
(1.4029979647 0.000623232576159 0)
(1.4030991849 0.000336406822269 0)
(1.40314263819 0.00015962113874 0)
(1.40315289987 5.51629532416e-05 0)
(1.40314541334 -2.99836365252e-06 0)
(1.40312965753 -3.21216676169e-05 0)
(1.40311126012 -4.38882030657e-05 0)
(1.40309322795 -4.57577717004e-05 0)
(1.40307708532 -4.24155794121e-05 0)
(1.40306343314 -3.67252946683e-05 0)
(1.40305234561 -3.03633935839e-05 0)
(1.40304362097 -2.42443298819e-05 0)
(1.40303693402 -1.88154521039e-05 0)
(1.40303192426 -1.42447540642e-05 0)
(1.40302824122 -1.05342630414e-05 0)
(1.40302558735 -7.58329708156e-06 0)
(1.40302372986 -5.26675861349e-06 0)
(1.40302249192 -3.4620850101e-06 0)
(1.40302172333 -2.02539831495e-06 0)
(1.40302125797 -8.52334890771e-07 0)
(1.40302090189 7.98473883078e-08 0)
(1.40302058757 7.90201588032e-07 0)
(1.4030203967 1.28036366575e-06 0)
(1.40302031778 1.65325206189e-06 0)
(1.40302025914 1.97225549289e-06 0)
(1.40302018572 2.27531593891e-06 0)
(1.4030200909 2.58082023816e-06 0)
(1.40301997271 2.89759440277e-06 0)
(1.40301983238 3.22990572489e-06 0)
(1.40301967134 3.5782150474e-06 0)
(1.40301948227 3.93319046921e-06 0)
(1.40301927666 4.25313950682e-06 0)
(1.4030190891 4.50618116073e-06 0)
(1.40301894701 4.65463942902e-06 0)
(1.40301887554 4.63783265078e-06 0)
(1.40301889131 4.37162566811e-06 0)
(1.40301899778 3.70498218159e-06 0)
(1.40301921882 2.44399934631e-06 0)
(1.40301953885 4.66229947344e-07 0)
(1.40302019483 -2.66361538887e-06 0)
(1.40302137939 -7.69473643934e-06 0)
(1.40302292876 -1.54316545323e-05 0)
(1.40302451555 -2.71988314286e-05 0)
(1.40302567565 -4.48508942704e-05 0)
(1.40302566972 -7.13764635945e-05 0)
(1.40302301119 -0.000111365983109 0)
(1.40301496635 -0.000171849873422 0)
(1.40299673545 -0.00026370279181 0)
(1.40296014082 -0.000403798022794 0)
(1.40289125703 -0.000618194112595 0)
(1.40276638678 -0.000947495486585 0)
(1.40254551412 -0.00145501744674 0)
(1.40216231612 -0.00223917209066 0)
(1.4015052986 -0.0034489820615 0)
(1.40038619394 -0.0053081162624 0)
(1.39849182152 -0.00813929588693 0)
(1.39530919607 -0.012377186973 0)
(1.39002550268 -0.0185325478822 0)
(1.38149301393 -0.0270428390019 0)
(1.36821634069 -0.0379894938415 0)
(1.34780445661 -0.0504799278629 0)
(0.994011531175 0.019235811047 0)
(1.0348476353 0.0523338462181 0)
(1.09199262577 0.0723631342102 0)
(1.15662419784 0.0791292392765 0)
(1.22032116026 0.0761045537912 0)
(1.27701944789 0.0673339788696 0)
(1.32424418155 0.0561509106848 0)
(1.36181572478 0.0447990177857 0)
(1.3906852918 0.0345303838609 0)
(1.4122607279 0.0258814380403 0)
(1.42801819263 0.0189465287192 0)
(1.4392988046 0.0135849858661 0)
(1.44722803101 0.00955653701053 0)
(1.45270408062 0.00660011710972 0)
(1.45641890048 0.00447419104453 0)
(1.45889138215 0.00297351350334 0)
(1.46050224394 0.00193276815575 0)
(1.46152563862 0.00122369286452 0)
(1.46215565287 0.000749549406518 0)
(1.46252747676 0.000439016591845 0)
(1.46273375375 0.000240520189886 0)
(1.46283689725 0.000117411456548 0)
(1.46287820146 4.4049688663e-05 0)
(1.46288444317 2.69207864119e-06 0)
(1.46287232227 -1.84422533143e-05 0)
(1.46285197515 -2.74354895366e-05 0)
(1.46282942867 -2.94350283009e-05 0)
(1.46280789537 -2.76851693188e-05 0)
(1.46278890275 -2.41837646686e-05 0)
(1.46277299567 -2.01119255494e-05 0)
(1.46276016529 -1.6118300341e-05 0)
(1.46275011745 -1.2525296539e-05 0)
(1.46274244215 -9.45977266878e-06 0)
(1.46273670694 -6.93215580997e-06 0)
(1.46273251327 -4.88839250471e-06 0)
(1.4627295183 -3.25954191225e-06 0)
(1.46272743349 -1.98191848341e-06 0)
(1.462726002 -1.01481464979e-06 0)
(1.46272501145 -3.14248468279e-07 0)
(1.46272439792 2.08916030426e-07 0)
(1.46272404913 6.9077172334e-07 0)
(1.46272381514 1.16702473343e-06 0)
(1.46272366426 1.59178023607e-06 0)
(1.46272355766 1.9713690752e-06 0)
(1.46272346583 2.3269886091e-06 0)
(1.46272336956 2.67189488571e-06 0)
(1.46272325485 3.01067349645e-06 0)
(1.46272311253 3.34146536849e-06 0)
(1.46272293779 3.65449424322e-06 0)
(1.46272272781 3.93646368404e-06 0)
(1.46272248632 4.17904005698e-06 0)
(1.46272222254 4.35138865974e-06 0)
(1.46272194145 4.40159694413e-06 0)
(1.46272165573 4.26076797738e-06 0)
(1.4627213823 3.83665814227e-06 0)
(1.46272114081 3.020902486e-06 0)
(1.46272089949 1.69834314904e-06 0)
(1.462720568 -2.67243646813e-07 0)
(1.46272002154 -3.1079760013e-06 0)
(1.46271912211 -7.69923428467e-06 0)
(1.46271759173 -1.4825929992e-05 0)
(1.46271475523 -2.55812132467e-05 0)
(1.46270949947 -4.15128069246e-05 0)
(1.46270001889 -6.50053634477e-05 0)
(1.46268325371 -9.96617611382e-05 0)
(1.46265406942 -0.000150876082751 0)
(1.46260396093 -0.000226831496066 0)
(1.46251917304 -0.000340002317775 0)
(1.46237725265 -0.00050900154966 0)
(1.4621413754 -0.000762245103629 0)
(1.46175158827 -0.0011434710184 0)
(1.46111331016 -0.00172034243856 0)
(1.46007548141 -0.00258860126806 0)
(1.45839719264 -0.00388775766398 0)
(1.45570461007 -0.00581016036214 0)
(1.45143248601 -0.00859887000368 0)
(1.44476068236 -0.0125139449792 0)
(1.43462050258 -0.017735689998 0)
(1.41975304998 -0.0242121757357 0)
(1.39831331467 -0.0313971968177 0)
(0.993269667217 0.00617015480022 0)
(1.0315809994 0.0171020514043 0)
(1.08672181684 0.0239906548653 0)
(1.15174554234 0.0265606725118 0)
(1.21823535933 0.0258180657398 0)
(1.27925773582 0.0230488929253 0)
(1.33140135096 0.0193656380017 0)
(1.37377597451 0.0155468640719 0)
(1.40691051602 0.0120449357559 0)
(1.43203311025 0.00906640457443 0)
(1.45060211809 0.00666059879412 0)
(1.46402981982 0.0047900946935 0)
(1.47355011565 0.00337843080043 0)
(1.48017558309 0.00233874000805 0)
(1.48470223241 0.00158891538343 0)
(1.48773614582 0.00105829008792 0)
(1.48972728156 0.000689463744949 0)
(1.49100271046 0.00043763925202 0)
(1.49179579012 0.00026888656577 0)
(1.49227016107 0.000158112025917 0)
(1.49253865425 8.71258088769e-05 0)
(1.49267773295 4.29764792473e-05 0)
(1.49273826961 1.65871085642e-05 0)
(1.49275344749 1.66725551709e-06 0)
(1.49274421514 -6.06485996696e-06 0)
(1.49272343207 -9.40964345908e-06 0)
(1.49269879331 -1.02155198847e-05 0)
(1.49267452643 -9.65243126693e-06 0)
(1.49265272869 -8.43912443755e-06 0)
(1.49263424198 -6.99345043039e-06 0)
(1.49261918907 -5.5556995981e-06 0)
(1.49260730808 -4.24526277333e-06 0)
(1.49259816988 -3.10984830158e-06 0)
(1.49259129901 -2.1552376485e-06 0)
(1.49258624122 -1.36514682851e-06 0)
(1.49258259587 -7.18214323518e-07 0)
(1.49258002709 -1.9263025603e-07 0)
(1.49257826423 2.32978401192e-07 0)
(1.4925771018 6.04983947076e-07 0)
(1.49257636278 9.75330125802e-07 0)
(1.49257589313 1.28118616513e-06 0)
(1.49257560179 1.56619769734e-06 0)
(1.4925754318 1.8478364826e-06 0)
(1.49257533085 2.13618115824e-06 0)
(1.49257525967 2.43815159486e-06 0)
(1.49257519145 2.75631435215e-06 0)
(1.49257510725 3.08951565538e-06 0)
(1.49257499331 3.43356071549e-06 0)
(1.49257483903 3.77978197153e-06 0)
(1.49257463551 4.11364072163e-06 0)
(1.49257437807 4.41510212605e-06 0)
(1.49257406352 4.65188004089e-06 0)
(1.4925736845 4.77716123201e-06 0)
(1.49257323063 4.73313307346e-06 0)
(1.49257267782 4.43184054156e-06 0)
(1.49257200479 3.75418511468e-06 0)
(1.49257119651 2.55314620988e-06 0)
(1.49257010604 7.36297164782e-07 0)
(1.49256832714 -1.9284966978e-06 0)
(1.49256556655 -6.07714554202e-06 0)
(1.49256142278 -1.22419848511e-05 0)
(1.49255487062 -2.11952706013e-05 0)
(1.49254430226 -3.40287046954e-05 0)
(1.49252717729 -5.2296117106e-05 0)
(1.49249938398 -7.8199568749e-05 0)
(1.49245422605 -0.000114772195103 0)
(1.49238083088 -0.000166389592735 0)
(1.49226213061 -0.000239552787621 0)
(1.4920707705 -0.00034276736025 0)
(1.49176216028 -0.000488574263267 0)
(1.49126401275 -0.000697141994041 0)
(1.49046759081 -0.00100221893648 0)
(1.48920354532 -0.00143626969987 0)
(1.48720607484 -0.00204678956852 0)
(1.48407680083 -0.00289512914144 0)
(1.47923601367 -0.0040487691506 0)
(1.47187704768 -0.00556197457033 0)
(1.4609866431 -0.00743623617045 0)
(1.44541795755 -0.00957750636495 0)
(1.42356205592 -0.0117372876076 0)
(0.993270465059 -0.00616839804016 0)
(1.03158098198 -0.017100371457 0)
(1.08672175039 -0.0239897565149 0)
(1.15174557981 -0.0265602415169 0)
(1.21823543687 -0.0258179877271 0)
(1.27925783734 -0.0230491049366 0)
(1.33140147638 -0.0193660422029 0)