/*--------------------------------*- C++ -*----------------------------------*\
| =========                 |                                                 |
| \\      /  F ield         | OpenFOAM: The Open Source CFD Toolbox           |
|  \\    /   O peration     | Version:  2106                                  |
|   \\  /    A nd           | Website:  www.openfoam.com                      |
|    \\/     M anipulation  |                                                 |
\*---------------------------------------------------------------------------*/
FoamFile
{
    version     2.0;
    format      ascii;
    arch        "LSB;label=32;scalar=64";
    class       volVectorField;
    location    "0.38";
    object      U;
}
// * * * * * * * * * * * * * * * * * * * * * * * * * * * * * * * * * * * * * //

dimensions      [0 1 -1 0 0 0 0];

internalField   nonuniform List<vector> 
9600
(
(0.675396173656 0.157677442497 0)
(0.563826158048 0.102430809924 0)
(0.38153894288 0.0510646907063 0)
(0.2838531927 0.0244589871097 0)
(0.232281028249 0.0119348237941 0)
(0.201907710476 0.00623035865712 0)
(0.18317841136 0.00352192527136 0)
(0.171271989429 0.00212007469322 0)
(0.16351224383 0.00132523625782 0)
(0.158392665839 0.000841456564719 0)
(0.155010704334 0.000534135635246 0)
(0.152789984753 0.000335040002078 0)
(0.151348696537 0.000205521331723 0)
(0.150429248633 0.000121791761438 0)
(0.149856460304 6.84336007971e-05 0)
(0.149511123801 3.51729506453e-05 0)
(0.149312514941 1.50864506478e-05 0)
(0.149206465452 3.50381678498e-06 0)
(0.149157085414 -2.70681442002e-06 0)
(0.149140975847 -5.61150159969e-06 0)
(0.149143258904 -6.52720465839e-06 0)
(0.149154655426 -6.4179577659e-06 0)
(0.149169594944 -5.78209325412e-06 0)
(0.149184966921 -4.92847408004e-06 0)
(0.14919913739 -4.04297238216e-06 0)
(0.149211385564 -3.22392100412e-06 0)
(0.149221523926 -2.51502072455e-06 0)
(0.149229652444 -1.9281613889e-06 0)
(0.149236007705 -1.45807626552e-06 0)
(0.149240874067 -1.09132143957e-06 0)
(0.14924453379 -8.11423623075e-07 0)
(0.149247242109 -6.01920871301e-07 0)
(0.149249216911 -4.47796305643e-07 0)
(0.149250636583 -3.3606901638e-07 0)
(0.14925164278 -2.5610050686e-07 0)
(0.149252345448 -1.99382582777e-07 0)
(0.149252828593 -1.59316710662e-07 0)
(0.149253155365 -1.30923726886e-07 0)
(0.149253372357 -1.10255171679e-07 0)
(0.149253513818 -9.45773774076e-08 0)
(0.149253604589 -8.24852946664e-08 0)
(0.149253661515 -7.38384175935e-08 0)
(0.149253695397 -6.9768153603e-08 0)
(0.149253713446 -7.02885867544e-08 0)
(0.149253721196 -7.31198277535e-08 0)
(0.149253722979 -7.74396298904e-08 0)
(0.149253721718 -8.32820934163e-08 0)
(0.149253719114 -9.0950488749e-08 0)
(0.149253715748 -9.95519554215e-08 0)
(0.149253711606 -1.0881549939e-07 0)
(0.14925370672 -1.18561455714e-07 0)
(0.14925370156 -1.28604057372e-07 0)
(0.14925369688 -1.38987651856e-07 0)
(0.149253693266 -1.498187468e-07 0)
(0.149253690733 -1.61213162711e-07 0)
(0.149253688708 -1.73378779988e-07 0)
(0.149253686343 -1.86490332802e-07 0)
(0.149253682972 -2.00654232019e-07 0)
(0.149253678534 -2.15886497577e-07 0)
(0.149253673452 -2.32144320481e-07 0)
(0.149253668316 -2.4938928077e-07 0)
(0.149253663777 -2.67627901814e-07 0)
(0.149253660083 -2.86981700038e-07 0)
(0.149253656775 -3.0754324935e-07 0)
(0.149253653246 -3.2943426445e-07 0)
(0.149253649246 -3.52856057065e-07 0)
(0.149253644653 -3.77859218438e-07 0)
(0.149253639445 -4.0433395006e-07 0)
(0.149253633898 -4.32204861195e-07 0)
(0.149253628377 -4.61539742447e-07 0)
(0.149253622956 -4.92479448297e-07 0)
(0.14925361727 -5.25189873894e-07 0)
(0.149253610903 -5.5978318429e-07 0)
(0.149253603936 -5.9631004641e-07 0)
(0.14925359697 -6.34777732101e-07 0)
(0.149253590495 -6.7519566271e-07 0)
(0.149253584382 -7.17628392771e-07 0)
(0.149253578082 -7.62242538637e-07 0)
(0.149253571109 -8.09224555184e-07 0)
(0.149253563314 -8.58660638262e-07 0)
(0.149253554938 -9.10600476647e-07 0)
(0.14925354654 -9.65137326904e-07 0)
(0.149253538688 -1.02220001631e-06 0)
(0.149253531714 -1.08153082145e-06 0)
(0.149253525676 -1.14318150956e-06 0)
(0.149253519951 -1.20760722397e-06 0)
(0.149253513401 -1.27509996798e-06 0)
(0.149253505714 -1.34553920946e-06 0)
(0.149253498082 -1.41876843242e-06 0)
(0.149253491927 -1.49486171162e-06 0)
(0.149253487292 -1.57387123231e-06 0)
(0.149253483437 -1.6556841602e-06 0)
(0.149253480422 -1.74028349041e-06 0)
(0.149253478704 -1.82772314861e-06 0)
(0.149253478218 -1.91802348652e-06 0)
(0.149253479087 -2.01154556936e-06 0)
(0.149253481667 -2.10857071746e-06 0)
(0.149253486236 -2.20846908655e-06 0)
(0.149253493774 -2.31037524968e-06 0)
(0.149253505759 -2.41418396402e-06 0)
(0.149253522643 -2.51984541903e-06 0)
(0.149253544029 -2.6269430458e-06 0)
(0.149253571494 -2.73579893351e-06 0)
(0.149253607728 -2.84704006429e-06 0)
(0.14925365458 -2.96049244476e-06 0)
(0.149253714282 -3.07576369346e-06 0)
(0.149253789978 -3.19284445561e-06 0)
(0.149253884835 -3.31212404934e-06 0)
(0.149254002009 -3.43470203844e-06 0)
(0.149254146353 -3.56370181806e-06 0)
(0.14925432517 -3.70568675212e-06 0)
(0.149254548399 -3.86485428769e-06 0)
(0.149254826989 -4.03515457004e-06 0)
(0.14925517417 -4.21452423722e-06 0)
(0.149255606546 -4.40386121715e-06 0)
(0.149256142128 -4.60388357771e-06 0)
(0.149256803402 -4.81509006885e-06 0)
(0.149257621381 -5.0393338112e-06 0)
(0.149258634287 -5.27910842145e-06 0)
(0.149259886987 -5.53573994372e-06 0)
(0.149261436094 -5.81014698788e-06 0)
(0.149263353838 -6.10539175717e-06 0)
(0.149265729448 -6.42773468387e-06 0)
(0.149268681563 -6.79307964928e-06 0)
(0.149272380108 -7.25813567791e-06 0)
(0.149276958999 -7.95135476213e-06 0)
(0.149282583402 -8.80955480845e-06 0)
(0.14928953097 -9.79302466208e-06 0)
(0.149298132974 -1.08985871433e-05 0)
(0.149308786968 -1.21387339329e-05 0)
(0.149321979675 -1.35321956549e-05 0)
(0.149338316177 -1.5103021946e-05 0)
(0.149358550726 -1.68833986236e-05 0)
(0.149383617002 -1.89140910358e-05 0)
(0.149414669024 -2.12436297888e-05 0)
(0.149453139714 -2.39328328321e-05 0)
(0.149500812586 -2.70621974871e-05 0)
(0.149559902455 -3.07335500687e-05 0)
(0.149633163528 -3.50730605418e-05 0)
(0.149724030774 -4.02402797293e-05 0)
(0.149836788498 -4.64375950363e-05 0)
(0.149976790465 -5.39243889942e-05 0)
(0.150150744128 -6.30332526551e-05 0)
(0.150367075769 -7.41894789332e-05 0)
(0.150636409986 -8.7939074423e-05 0)
(0.150972197097 -0.000104987104698 0)
(0.151391565452 -0.000126256451134 0)
(0.151916470291 -0.000152956231017 0)
(0.152575275158 -0.00018667590301 0)
(0.153405013432 -0.000229532790336 0)
(0.154454682608 -0.000284382839595 0)
(0.155790333673 -0.000355231618891 0)
(0.157503733276 -0.000448411713648 0)
(0.159729894376 -0.000576912638816 0)
(0.162689087316 -0.000777070971875 0)
(0.166792965083 -0.00116989151168 0)
(0.17297499681 -0.00218427034688 0)
(0.184029872031 -0.00541404907735 0)
(0.208381854222 -0.0168796243426 0)
(0.262025878972 -0.0587301633045 0)
(0.977201161399 0.296997127813 0)
(0.962687453055 0.250387280432 0)
(0.820646039684 0.158581010076 0)
(0.697824902958 0.0957993426694 0)
(0.610491668716 0.0579132759807 0)
(0.549133314348 0.0359038526958 0)
(0.506705989417 0.0229309344848 0)
(0.477662025832 0.0149788773331 0)
(0.457815304441 0.00990973299026 0)
(0.444277682505 0.00658331051159 0)
(0.435087235066 0.00436198725706 0)
(0.428895562672 0.00286682737402 0)
(0.424768042823 0.00185972092397 0)
(0.4220542329 0.00118457154961 0)
(0.420301050305 0.000736109717364 0)
(0.419193677221 0.000442158459838 0)
(0.418514608848 0.000252859541095 0)
(0.418114833532 0.000133739297548 0)
(0.41789337562 6.10526203554e-05 0)
(0.417782732748 1.85775601946e-05 0)
(0.417738474223 -4.63459499184e-06 0)
(0.417731936024 -1.60102442898e-05 0)
(0.41774515152 -2.03064877406e-05 0)
(0.417767174373 -2.06094221238e-05 0)
(0.417791622988 -1.88561174311e-05 0)
(0.417815036647 -1.62211515538e-05 0)
(0.417835756113 -1.33832075925e-05 0)
(0.417853188772 -1.07054749525e-05 0)
(0.417867337984 -8.35719320509e-06 0)
(0.417878509714 -6.39374977202e-06 0)
(0.417887135147 -4.80748535702e-06 0)
(0.417893669234 -3.55946778463e-06 0)
(0.417898536961 -2.59848793217e-06 0)
(0.417902108258 -1.87181560355e-06 0)
(0.417904690646 -1.33098025067e-06 0)
(0.41790653154 -9.34084677131e-07 0)
(0.417907825201 -6.46672385034e-07 0)
(0.417908721247 -4.41309066077e-07 0)
(0.417909332444 -2.96158622033e-07 0)
(0.417909742287 -1.94524538024e-07 0)
(0.417910011772 -1.24522262187e-07 0)
(0.417910183778 -7.80185246471e-08 0)
(0.417910288506 -4.91883562958e-08 0)
(0.417910349074 -3.32820454263e-08 0)
(0.417910381452 -2.52245596134e-08 0)
(0.41791039539 -2.14593031789e-08 0)
(0.417910397791 -1.97319262704e-08 0)
(0.417910394316 -1.84569564679e-08 0)
(0.417910387991 -1.80391753139e-08 0)
(0.417910379523 -1.89436607011e-08 0)
(0.41791036971 -2.0708460791e-08 0)
(0.417910359324 -2.27656343028e-08 0)
(0.41791034915 -2.47804752613e-08 0)
(0.417910339823 -2.66406155507e-08 0)
(0.417910331297 -2.84950439673e-08 0)
(0.417910322926 -3.05971836738e-08 0)
(0.417910313915 -3.3088474728e-08 0)
(0.417910303703 -3.60213326768e-08 0)
(0.417910292328 -3.92496171627e-08 0)
(0.417910280218 -4.25624232039e-08 0)
(0.417910267884 -4.56938927091e-08 0)
(0.417910255829 -4.84981847291e-08 0)
(0.417910244204 -5.11760590303e-08 0)
(0.417910232502 -5.40042651506e-08 0)
(0.417910220026 -5.71516186594e-08 0)
(0.41791020664 -6.07854092151e-08 0)
(0.417910192505 -6.49094488563e-08 0)
(0.417910177662 -6.94748923478e-08 0)
(0.417910162185 -7.41216210072e-08 0)
(0.417910146241 -7.86260830376e-08 0)
(0.417910129803 -8.30772620421e-08 0)
(0.417910112482 -8.77824161302e-08 0)
(0.41791009393 -9.2953538356e-08 0)
(0.417910074358 -9.84638962964e-08 0)
(0.417910054477 -1.04101034682e-07 0)
(0.417910034762 -1.09845416601e-07 0)
(0.417910014915 -1.15788952338e-07 0)
(0.41790999424 -1.22004214604e-07 0)
(0.417909972342 -1.2856543147e-07 0)
(0.417909949259 -1.35566773551e-07 0)
(0.417909925251 -1.43099393006e-07 0)
(0.417909900962 -1.51187243235e-07 0)
(0.417909877297 -1.59542886369e-07 0)
(0.417909854601 -1.67683410723e-07 0)
(0.417909832405 -1.75741646842e-07 0)
(0.417909809871 -1.8453571786e-07 0)
(0.417909786355 -1.94501039058e-07 0)
(0.417909762027 -2.05188670214e-07 0)
(0.417909738049 -2.16054686753e-07 0)
(0.417909715831 -2.27267641435e-07 0)
(0.417909695804 -2.39188818907e-07 0)
(0.417909677514 -2.51714739766e-07 0)
(0.417909661063 -2.64793791717e-07 0)
(0.417909647101 -2.78617048622e-07 0)
(0.417909635705 -2.9329838981e-07 0)
(0.417909627297 -3.09523896194e-07 0)
(0.417909623648 -3.28118062483e-07 0)
(0.417909626695 -3.48684717114e-07 0)
(0.417909637771 -3.70710602956e-07 0)
(0.41790965863 -3.95974430834e-07 0)
(0.417909691427 -4.26317881658e-07 0)
(0.417909737266 -4.60629009257e-07 0)
(0.417909798923 -4.98555375952e-07 0)
(0.417909881932 -5.41439601967e-07 0)
(0.417909992043 -5.90046455568e-07 0)
(0.417910135153 -6.44369977008e-07 0)
(0.41791031848 -7.04907475469e-07 0)
(0.417910550052 -7.72681014721e-07 0)
(0.417910837805 -8.48178554622e-07 0)
(0.417911190545 -9.30556444611e-07 0)
(0.417911625366 -1.01492843476e-06 0)
(0.417912176958 -1.0972841907e-06 0)
(0.417912878263 -1.18710583262e-06 0)
(0.417913757399 -1.29067476476e-06 0)
(0.417914854213 -1.41489022908e-06 0)
(0.417916218748 -1.5663079736e-06 0)
(0.417917911717 -1.75059980771e-06 0)
(0.417920010818 -1.97679002284e-06 0)
(0.417922614482 -2.25785739637e-06 0)
(0.417925843054 -2.60752270382e-06 0)
(0.417929843847 -3.04101494043e-06 0)
(0.417934799367 -3.57942983825e-06 0)
(0.417940933351 -4.25145477056e-06 0)
(0.417948512175 -5.09769138268e-06 0)
(0.41795785356 -6.19561842163e-06 0)
(0.417969430018 -7.69173126776e-06 0)
(0.417983839055 -9.60969386877e-06 0)
(0.418001730645 -1.20022735854e-05 0)
(0.418023916032 -1.49671645826e-05 0)
(0.41805141262 -1.86370001326e-05 0)
(0.418085483137 -2.31751423867e-05 0)
(0.418127693831 -2.87825368244e-05 0)
(0.418179989703 -3.5711807132e-05 0)
(0.418244784097 -4.42781765149e-05 0)
(0.418325067225 -5.48681520317e-05 0)
(0.418424545868 -6.7958808769e-05 0)
(0.418547826638 -8.4149279819e-05 0)
(0.418700637722 -0.000104188246393 0)
(0.418890104348 -0.000129007774115 0)
(0.419125103526 -0.000159777083731 0)
(0.419416705473 -0.000197966957161 0)
(0.419778742305 -0.00024543705752 0)
(0.420228543129 -0.000304550475174 0)
(0.420787879381 -0.000378324028163 0)
(0.421484202021 -0.00047063866239 0)
(0.422352271089 -0.000586526256442 0)
(0.423436371318 -0.000732590524496 0)
(0.424793347461 -0.000917612798595 0)
(0.426496842385 -0.00115345966168 0)
(0.428643488573 -0.00145655883672 0)
(0.431362294152 -0.00185041321819 0)
(0.434829642709 -0.00237035622799 0)
(0.439294866082 -0.00307370178151 0)
(0.445127502892 -0.00406425634056 0)
(0.452910848679 -0.00555753697743 0)
(0.463621151412 -0.00806063556149 0)
(0.478965843145 -0.0128700935042 0)
(0.502246240171 -0.02350494925 0)
(0.53986909582 -0.0497552396507 0)
(0.595856035048 -0.115086138704 0)
(1.03387038209 0.239240957212 0)
(1.08314080992 0.293634388206 0)
(1.03294437724 0.239131937671 0)
(0.954408213228 0.174539015492 0)
(0.880112587407 0.121551460047 0)
(0.818677614438 0.0832335936974 0)
(0.771466793417 0.0568258121459 0)
(0.736691576583 0.038812571389 0)
(0.711672103711 0.0264913185509 0)
(0.693953131385 0.0180235783758 0)
(0.681568205696 0.0121876204869 0)
(0.673018603418 0.00816650275812 0)
(0.667192232217 0.00540556518054 0)
(0.66327774842 0.00352226154652 0)
(0.660690310036 0.00224961095394 0)
(0.659012735487 0.00140002779414 0)
(0.657950528335 0.000841456664999 0)
(0.657298074761 0.000481124590304 0)
(0.656913530603 0.000254195988321 0)
(0.656700339514 0.000115712246014 0)
(0.656593731005 3.47975410454e-05 0)
(0.656551016679 -9.46388819401e-06 0)
(0.656544672853 -3.10079528045e-05 0)
(0.656557369598 -3.90717406566e-05 0)
(0.656578551941 -3.95441799254e-05 0)
(0.656602074662 -3.61164371597e-05 0)
(0.656624604169 -3.10269060535e-05 0)
(0.656644541953 -2.55658122909e-05 0)
(0.656661316809 -2.04216831213e-05 0)
(0.656674931913 -1.59144850018e-05 0)
(0.656685681746 -1.21475917157e-05 0)
(0.656693981402 -9.1047730973e-06 0)
(0.656700268789 -6.71081532578e-06 0)
(0.656704952365 -4.86766008012e-06 0)
(0.656708387692 -3.47476411728e-06 0)
(0.656710870498 -2.43958037762e-06 0)
(0.656712638955 -1.68221613152e-06 0)
(0.656713880606 -1.13672106709e-06 0)
(0.656714739671 -7.49985865223e-07 0)
(0.656715324598 -4.79954705231e-07 0)
(0.656715715919 -2.94847682093e-07 0)
(0.656715972426 -1.70854444337e-07 0)
(0.656716135709 -8.92991879814e-08 0)
(0.656716235541 -3.6792947815e-08 0)
(0.656716293596 -4.50045336371e-09 0)
(0.6567163248 1.44966654206e-08 0)
(0.656716339471 2.53100925244e-08 0)
(0.656716343223 3.1639903205e-08 0)
(0.65671633887 3.4979550134e-08 0)
(0.656716329654 3.74055162127e-08 0)
(0.656716318131 3.97281617105e-08 0)
(0.656716305711 4.22096378208e-08 0)
(0.65671629339 4.5139661116e-08 0)
(0.656716281692 4.85656399381e-08 0)
(0.656716270499 5.22681194544e-08 0)
(0.656716259287 5.60234340856e-08 0)
(0.656716247357 5.98184989527e-08 0)
(0.656716234244 6.3892591868e-08 0)
(0.656716220068 6.84805069756e-08 0)
(0.656716205317 7.36625286642e-08 0)
(0.656716190477 7.97113853346e-08 0)
(0.656716175762 8.66938540759e-08 0)
(0.656716161028 9.41809016394e-08 0)
(0.656716145796 1.01646978807e-07 0)
(0.656716129552 1.0901749038e-07 0)
(0.656716112231 1.16400631873e-07 0)
(0.65671609391 1.23882766553e-07 0)
(0.656716074826 1.31988185333e-07 0)
(0.656716055307 1.4097978526e-07 0)
(0.656716035289 1.51075541173e-07 0)
(0.6567160144 1.62191884015e-07 0)
(0.656715992161 1.73943981283e-07 0)
(0.656715968475 1.86061554227e-07 0)
(0.656715943789 1.98722454638e-07 0)
(0.656715918713 2.12220169048e-07 0)
(0.65671589354 2.26554522226e-07 0)
(0.656715868001 2.41572508452e-07 0)
(0.656715841483 2.57299560481e-07 0)
(0.656715813529 2.73850655381e-07 0)
(0.656715784096 2.91210232728e-07 0)
(0.656715753535 3.0937475422e-07 0)
(0.656715722706 3.28505890844e-07 0)
(0.656715692657 3.48798417817e-07 0)
(0.656715663546 3.70346358738e-07 0)
(0.656715634486 3.92939984181e-07 0)
(0.656715604617 4.16141912744e-07 0)
(0.656715573868 4.39922525353e-07 0)
(0.65671554289 4.64906568422e-07 0)
(0.656715512624 4.91680873918e-07 0)
(0.65671548407 5.19990084078e-07 0)
(0.656715457873 5.49256263211e-07 0)
(0.656715433996 5.7950706542e-07 0)
(0.656715412567 6.10879859679e-07 0)
(0.656715394301 6.43004406182e-07 0)
(0.656715379443 6.75626140776e-07 0)
(0.656715368529 7.08694929901e-07 0)
(0.65671536387 7.41859836286e-07 0)
(0.656715367975 7.75167538065e-07 0)
(0.656715381391 8.09633960357e-07 0)
(0.656715405424 8.46267825179e-07 0)
(0.65671544544 8.84580043041e-07 0)
(0.656715505828 9.22365016529e-07 0)
(0.656715589807 9.59254974415e-07 0)
(0.656715703513 9.93739577891e-07 0)
(0.65671585522 1.02379396854e-06 0)
(0.656716053947 1.04795326092e-06 0)
(0.656716310214 1.06376675674e-06 0)
(0.656716637277 1.06734228439e-06 0)
(0.656717051984 1.0554158654e-06 0)
(0.656717578282 1.02649896493e-06 0)
(0.65671824498 9.82536289785e-07 0)
(0.656719075666 9.22914301826e-07 0)
(0.656720102554 8.32237492401e-07 0)
(0.656721376751 6.97858345546e-07 0)
(0.656722959403 5.0471500343e-07 0)
(0.656724924932 2.34184874905e-07 0)
(0.656727362226 -1.33423826642e-07 0)
(0.656730380986 -6.22223237418e-07 0)
(0.65673412045 -1.26479631972e-06 0)
(0.656738753583 -2.10193656114e-06 0)
(0.656744492238 -3.18262419324e-06 0)
(0.656751598628 -4.56762029635e-06 0)
(0.656760399469 -6.33372002597e-06 0)
(0.656771299583 -8.57561458721e-06 0)
(0.656784793137 -1.14033515651e-05 0)
(0.656801497093 -1.49369074902e-05 0)
(0.656822179682 -1.93874876524e-05 0)
(0.656847784668 -2.49994738281e-05 0)
(0.656879487399 -3.20652724305e-05 0)
(0.656918747762 -4.09472665005e-05 0)
(0.65696737222 -5.20921913139e-05 0)
(0.657027594485 -6.60516658999e-05 0)
(0.657102183334 -8.35119921573e-05 0)
(0.657194576365 -0.000105328150587 0)
(0.657309037377 -0.000132560946416 0)
(0.657450849753 -0.000166523985522 0)
(0.657626572922 -0.000208852679671 0)
(0.657844361693 -0.000261587947645 0)
(0.658114355683 -0.000327277251838 0)
(0.658449177407 -0.00040911292411 0)
(0.658864557404 -0.000511106589069 0)
(0.659380131606 -0.000638316717163 0)
(0.660020468605 -0.000797153909277 0)
(0.660816386399 -0.000995790627479 0)
(0.661806670465 -0.00124472825192 0)
(0.66304032514 -0.00155757141041 0)
(0.664579598634 -0.00195214470787 0)
(0.666504108696 -0.0024521544274 0)
(0.668916548111 -0.00308970219432 0)
(0.671950873936 -0.00390932769718 0)
(0.675784434755 -0.00497489003213 0)
(0.680656586356 -0.00638209237422 0)
(0.686898287838 -0.00828300995135 0)
(0.69498060502 -0.0109373251395 0)
(0.705595093661 -0.0148252190788 0)
(0.719772215353 -0.0209009566376 0)
(0.738999519144 -0.0311409923585 0)
(0.765292739513 -0.049656278986 0)
(0.800725957657 -0.0847657670461 0)
(0.841553476855 -0.1503298994 0)
(1.03384128317 0.171306940304 0)
(1.10231584766 0.275556747205 0)
(1.11663620648 0.266312377012 0)
(1.09207924928 0.219892602174 0)
(1.05195420254 0.168210312517 0)
(1.01022221503 0.123615334848 0)
(0.973507718799 0.0888850606068 0)
(0.943885950946 0.0630494616477 0)
(0.921162804941 0.0442607983916 0)
(0.904299827847 0.0307744365316 0)
(0.892086141172 0.0211830163045 0)
(0.88341124001 0.0144172982027 0)
(0.877355067999 0.00968544156852 0)
(0.873196221285 0.00640758714961 0)
(0.870388070013 0.00416172419332 0)
(0.868526265094 0.00264232308003 0)
(0.867317308612 0.00162947876785 0)
(0.866551595647 0.000966026259534 0)
(0.866081668441 0.000540573562492 0)
(0.865805311143 0.000274926826252 0)
(0.865652736617 0.000114790863493 0)
(0.865577103751 2.29554365803e-05 0)
(0.865547490145 -2.57257540963e-05 0)
(0.865543951394 -4.8045842126e-05 0)
(0.865553998139 -5.4925819304e-05 0)
(0.865570000752 -5.33272313757e-05 0)
(0.865587537714 -4.75742019251e-05 0)
(0.865604227481 -4.02471086475e-05 0)
(0.865618940491 -3.28002147908e-05 0)
(0.865631286499 -2.59824473505e-05 0)
(0.865641286962 -2.01156210025e-05 0)
(0.86564917025 -1.52748041153e-05 0)
(0.865655248519 -1.14031805465e-05 0)
(0.86565984719 -8.38231962124e-06 0)
(0.865663268231 -6.07353953459e-06 0)
(0.865665773771 -4.34059407363e-06 0)
(0.86566758152 -3.06066285296e-06 0)
(0.865668867112 -2.12946344084e-06 0)
(0.865669768645 -1.46175948789e-06 0)
(0.865670391451 -9.89411033433e-07 0)
(0.865670814469 -6.59809080438e-07 0)
(0.865671096338 -4.33547315698e-07 0)
(0.86567127916 -2.81092478624e-07 0)
(0.865671393271 -1.8047601148e-07 0)
(0.865671460984 -1.16039490632e-07 0)
(0.865671497995 -7.63332339837e-08 0)
(0.865671515226 -5.32289760466e-08 0)
(0.865671520181 -4.14910600424e-08 0)
(0.865671518014 -3.63925751788e-08 0)
(0.86567151126 -3.47121702592e-08 0)
(0.865671500864 -3.51078034339e-08 0)
(0.865671488244 -3.70899400238e-08 0)
(0.865671474696 -4.03069455686e-08 0)
(0.865671460895 -4.43765015707e-08 0)
(0.865671446864 -4.90399811632e-08 0)
(0.865671432316 -5.42536619626e-08 0)
(0.865671416925 -5.99638547775e-08 0)
(0.865671400377 -6.58565517623e-08 0)
(0.865671382579 -7.17026733989e-08 0)
(0.865671363965 -7.74129380651e-08 0)
(0.865671345001 -8.28751285118e-08 0)
(0.865671325599 -8.81456613859e-08 0)
(0.865671305423 -9.36620647467e-08 0)
(0.865671284265 -9.98423361634e-08 0)
(0.865671261966 -1.06660587476e-07 0)
(0.865671238522 -1.13961913815e-07 0)
(0.865671214392 -1.21791325506e-07 0)
(0.865671189707 -1.29879191208e-07 0)
(0.865671164242 -1.381403097e-07 0)
(0.865671137864 -1.46580473616e-07 0)
(0.865671110088 -1.55377682306e-07 0)
(0.865671080401 -1.64782839627e-07 0)
(0.865671048871 -1.74858807851e-07 0)
(0.865671016132 -1.85430321851e-07 0)
(0.865670982787 -1.96320557705e-07 0)
(0.865670948982 -2.07635438349e-07 0)
(0.865670914404 -2.19651556897e-07 0)
(0.865670878533 -2.3244224862e-07 0)
(0.865670840985 -2.45864170578e-07 0)
(0.865670801777 -2.59803601496e-07 0)
(0.865670761334 -2.74096919462e-07 0)
(0.865670720454 -2.88491849051e-07 0)
(0.865670680026 -3.03084407856e-07 0)
(0.865670640166 -3.18436180244e-07 0)
(0.865670600047 -3.35212087997e-07 0)
(0.865670559022 -3.53848818652e-07 0)
(0.865670517394 -3.7428798321e-07 0)
(0.865670475953 -3.96019315152e-07 0)
(0.865670435279 -4.1860654049e-07 0)
(0.865670396017 -4.42321468554e-07 0)
(0.865670359096 -4.67949688936e-07 0)
(0.865670324938 -4.95783108309e-07 0)
(0.865670293579 -5.25898448887e-07 0)
(0.865670265677 -5.59322960626e-07 0)
(0.865670242062 -5.97009111205e-07 0)
(0.865670223768 -6.3870245671e-07 0)
(0.86567021341 -6.84382991583e-07 0)
(0.865670214818 -7.34865597099e-07 0)
(0.865670231056 -7.90399513571e-07 0)
(0.865670264044 -8.50400858315e-07 0)
(0.865670315257 -9.15459611605e-07 0)
(0.865670387992 -9.88767383993e-07 0)
(0.865670488138 -1.07188304215e-06 0)
(0.865670623065 -1.16654325202e-06 0)
(0.865670802483 -1.27543835467e-06 0)
(0.865671036753 -1.4016475127e-06 0)
(0.86567133709 -1.54961212847e-06 0)
(0.865671718214 -1.72620786755e-06 0)
(0.865672198936 -1.93922452872e-06 0)
(0.865672803152 -2.19758179909e-06 0)
(0.865673562101 -2.51574157596e-06 0)
(0.865674513771 -2.91151827438e-06 0)
(0.865675703585 -3.39639417338e-06 0)
(0.865677186151 -3.98826375096e-06 0)
(0.865679028925 -4.71203739347e-06 0)
(0.865681318295 -5.60086975976e-06 0)
(0.865684159976 -6.69425376679e-06 0)
(0.865687682573 -8.03846703595e-06 0)
(0.865692047235 -9.69180089957e-06 0)
(0.865697455474 -1.17286510767e-05 0)
(0.865704155615 -1.42406911313e-05 0)
(0.865712453941 -1.73407742043e-05 0)
(0.865722731001 -2.1170725055e-05 0)
(0.865735458751 -2.59098255954e-05 0)
(0.865751218734 -3.17833564561e-05 0)
(0.865770732502 -3.90641968065e-05 0)
(0.865794894724 -4.80884583701e-05 0)
(0.865824808402 -5.92631141397e-05 0)
(0.865861840652 -7.3093509818e-05 0)
(0.865907690275 -9.02130956973e-05 0)
(0.865964463479 -0.000111412774937 0)
(0.866034765325 -0.000137674321788 0)
(0.866121821665 -0.000170214942282 0)
(0.866229634983 -0.000210547935856 0)
(0.866363171382 -0.000260558119349 0)
(0.866528584805 -0.000322588234995 0)
(0.866733508987 -0.000399553367569 0)
(0.866987427119 -0.000495090299653 0)
(0.867302121074 -0.000613740827422 0)
(0.867692241096 -0.000761193611491 0)
(0.868176022746 -0.000944594715403 0)
(0.868776193519 -0.00117294623338 0)
(0.86952112979 -0.00145763728132 0)
(0.87044632759 -0.00181315681477 0)
(0.871596311379 -0.00225807104965 0)
(0.873027105677 -0.00281635945568 0)
(0.874809483774 -0.00351931043955 0)
(0.877033322107 -0.00440831772519 0)
(0.879813471919 -0.00553907216 0)
(0.883297857276 -0.006988140001 0)
(0.887678841779 -0.00886379816542 0)
(0.893209338169 -0.0113247627782 0)
(0.900225563971 -0.0146142207622 0)
(0.909177960791 -0.0191240745293 0)
(0.920668265528 -0.0255191763619 0)
(0.935471496371 -0.0349763183611 0)
(0.954459003888 -0.0496102862007 0)
(0.978259400248 -0.0731012515923 0)
(1.00622294961 -0.11127598418 0)
(1.03254165338 -0.170880667636 0)
(1.02388346207 0.119321981573 0)
(1.08875436715 0.231514419896 0)
(1.13660483093 0.25286894245 0)
(1.15406272721 0.228905048561 0)
(1.15000112859 0.188337383187 0)
(1.13537624003 0.146577289654 0)
(1.11757777783 0.110164821685 0)
(1.1005919999 0.0808376074608 0)
(1.08612241677 0.0582502007427 0)
(1.07458762181 0.0413417865922 0)
(1.06578679883 0.0289362834428 0)
(1.05928156873 0.0199770194219 0)
(1.05459132915 0.0135949291658 0)
(1.05128027107 0.00910742698987 0)
(1.04898736502 0.00599313348154 0)
(1.04742905565 0.00386144264272 0)
(1.04639046269 0.0024241381892 0)
(1.04571299471 0.00147134921667 0)
(1.045282063 0.000852136425851 0)
(1.04501638103 0.000459263053103 0)
(1.04485925863 0.00021748913601 0)
(1.04477182917 7.47177524745e-05 0)
(1.04472784775 -4.64584379148e-06 0)
(1.04470998094 -4.4445058197e-05 0)
(1.04470705387 -6.05349542237e-05 0)
(1.04471197605 -6.3092411506e-05 0)
(1.04472041607 -5.85433159692e-05 0)
(1.04472985748 -5.08108819957e-05 0)
(1.04473893199 -4.21798156795e-05 0)
(1.04474697873 -3.3892489047e-05 0)
(1.04475375781 -2.65475631966e-05 0)
(1.0447592651 -2.03614205697e-05 0)
(1.04476361634 -1.53365451452e-05 0)
(1.04476697713 -1.13666559304e-05 0)
(1.04476952303 -8.30023950868e-06 0)
(1.04477141874 -5.97669737457e-06 0)
(1.04477280795 -4.24525120505e-06 0)
(1.04477381078 -2.97429077366e-06 0)
(1.04477452464 -2.05466033903e-06 0)
(1.04477502551 -1.39836012842e-06 0)
(1.04477537107 -9.36146685998e-07 0)
(1.04477560504 -6.15323592661e-07 0)
(1.04477575964 -3.95959201226e-07 0)
(1.04477585816 -2.47982195182e-07 0)
(1.04477591819 -1.49813025952e-07 0)
(1.0447759526 -8.58349668293e-08 0)
(1.04477597009 -4.48517222549e-08 0)
(1.04477597627 -1.92248600214e-08 0)
(1.04477597453 -3.84685549352e-09 0)
(1.04477596703 4.28571932731e-09 0)
(1.04477595543 8.19188645581e-09 0)
(1.04477594129 1.00403316057e-08 0)
(1.04477592612 1.08984666477e-08 0)
(1.04477591083 1.11686081853e-08 0)
(1.04477589537 1.1028711518e-08 0)
(1.04477587929 1.06320449485e-08 0)
(1.04477586224 1.00289672415e-08 0)
(1.04477584399 9.32437693849e-09 0)
(1.0447758245 8.83485083265e-09 0)
(1.04477580418 8.93021780558e-09 0)
(1.04477578337 9.67076268705e-09 0)
(1.04477576186 1.09351508922e-08 0)
(1.0447757393 1.24675510735e-08 0)
(1.0447757156 1.40112059376e-08 0)
(1.04477569074 1.55687784673e-08 0)
(1.04477566455 1.73534381632e-08 0)
(1.04477563715 1.94035601353e-08 0)
(1.04477560882 2.14680725361e-08 0)
(1.04477557966 2.37191708415e-08 0)
(1.04477554937 2.61827105354e-08 0)
(1.04477551742 2.87051232852e-08 0)
(1.04477548347 3.1229399007e-08 0)
(1.04477544774 3.3875475881e-08 0)
(1.04477541083 3.67895103356e-08 0)
(1.0447753731 4.00215335329e-08 0)
(1.04477533452 4.34669350374e-08 0)
(1.04477529484 4.69349796416e-08 0)
(1.04477525374 5.03716238817e-08 0)
(1.04477521093 5.39599358825e-08 0)
(1.04477516643 5.79648073939e-08 0)
(1.04477512077 6.26795542299e-08 0)
(1.04477507457 6.83155921238e-08 0)
(1.04477502822 7.45688611065e-08 0)
(1.04477498149 8.07217024045e-08 0)
(1.04477493366 8.62979710071e-08 0)
(1.04477488446 9.12878602508e-08 0)
(1.04477483462 9.58579731764e-08 0)
(1.04477478519 1.00126736832e-07 0)
(1.04477473659 1.04284485906e-07 0)
(1.04477468893 1.08417563724e-07 0)
(1.04477464299 1.12029477733e-07 0)
(1.04477459952 1.14559736471e-07 0)
(1.0447745583 1.15755279591e-07 0)
(1.04477451957 1.14770927539e-07 0)
(1.04477448487 1.10561469598e-07 0)
(1.04477445597 1.03178143308e-07 0)
(1.04477443486 9.26035521099e-08 0)
(1.04477442437 7.71514125986e-08 0)
(1.04477442681 5.43136974491e-08 0)
(1.04477444407 2.14418975942e-08 0)
(1.04477447956 -2.45208637854e-08 0)
(1.04477453846 -8.58913149456e-08 0)
(1.04477462681 -1.65446923291e-07 0)
(1.0447747519 -2.66310332549e-07 0)
(1.04477492358 -3.93129353193e-07 0)
(1.04477515272 -5.51989366095e-07 0)
(1.04477545067 -7.50068839101e-07 0)
(1.04477583273 -9.96482964918e-07 0)
(1.04477631991 -1.30195828588e-06 0)
(1.04477693803 -1.67778384775e-06 0)
(1.04477771794 -2.13793500954e-06 0)
(1.04477869686 -2.70276348253e-06 0)
(1.0447799214 -3.39898303332e-06 0)
(1.04478144896 -4.25893195204e-06 0)
(1.04478334974 -5.32006260299e-06 0)
(1.0447857129 -6.62981637321e-06 0)
(1.04478864935 -8.24768944234e-06 0)
(1.04479229396 -1.02449643794e-05 0)
(1.04479681341 -1.27087648604e-05 0)
(1.04480241616 -1.57483330062e-05 0)
(1.04480936047 -1.95000382862e-05 0)
(1.04481796448 -2.41329036686e-05 0)
(1.04482862255 -2.98574687783e-05 0)
(1.04484182416 -3.69368021502e-05 0)
(1.04485817331 -4.56974305433e-05 0)
(1.04487841734 -5.65419056742e-05 0)
(1.04490348325 -6.99698721327e-05 0)
(1.04493451751 -8.65956684086e-05 0)
(1.04497293846 -0.000107175508213 0)
(1.04502050447 -0.00013264790918 0)
(1.04507939617 -0.000164182669534 0)
(1.04515231423 -0.000203232719477 0)
(1.0452426024 -0.000251596881468 0)
(1.0453544035 -0.000311506254953 0)
(1.04549285458 -0.000385737525486 0)
(1.04566432108 -0.000477744564278 0)
(1.04587669283 -0.000591823436669 0)
(1.04613976105 -0.000733328682672 0)
(1.04646567538 -0.000908942394936 0)
(1.04686951804 -0.00112702298544 0)
(1.04737002778 -0.0013980542031 0)
(1.04799050653 -0.00173522025676 0)
(1.04875996036 -0.00215516522641 0)
(1.0497145305 -0.00267899961577 0)
(1.05089932944 -0.00333366586092 0)
(1.05237077685 -0.00415380102274 0)