/*--------------------------------*- C++ -*----------------------------------*\
| =========                 |                                                 |
| \\      /  F ield         | OpenFOAM: The Open Source CFD Toolbox           |
|  \\    /   O peration     | Version:  2106                                  |
|   \\  /    A nd           | Website:  www.openfoam.com                      |
|    \\/     M anipulation  |                                                 |
\*---------------------------------------------------------------------------*/
FoamFile
{
    version     2.0;
    format      ascii;
    arch        "LSB;label=32;scalar=64";
    class       volVectorField;
    location    "0.43";
    object      U;
}
// * * * * * * * * * * * * * * * * * * * * * * * * * * * * * * * * * * * * * //

dimensions      [0 1 -1 0 0 0 0];

internalField   nonuniform List<vector> 
11200
(
(0.662462405493 0.150569440454 0)
(0.558948685663 0.103243387516 0)
(0.383850765671 0.0513512234678 0)
(0.283747637234 0.0248708544873 0)
(0.232075326388 0.0124170444267 0)
(0.201908658137 0.00662281595458 0)
(0.183198019682 0.00380291343509 0)
(0.171276590592 0.00231586900499 0)
(0.163510423538 0.00146450545726 0)
(0.158388902006 0.000944891298838 0)
(0.155006778439 0.000615175708786 0)
(0.152786838697 0.000402232475901 0)
(0.151346704353 0.00026423069587 0)
(0.150428484025 0.000175248408174 0)
(0.149856897642 0.000118358662907 0)
(0.149512715515 8.21576688403e-05 0)
(0.14931517544 5.88633304002e-05 0)
(0.149209834927 4.33129937937e-05 0)
(0.149159997592 3.2932158244e-05 0)
(0.149142779153 2.81835162252e-05 0)
(0.149144954951 2.76812990535e-05 0)
(0.149157248907 2.98871054642e-05 0)
(0.149172886926 3.30472032012e-05 0)
(0.14918844957 3.59623921499e-05 0)
(0.14920267275 3.85975132289e-05 0)
(0.149214957003 4.10362208924e-05 0)
(0.149225135057 4.33131861634e-05 0)
(0.149233314138 4.54596561128e-05 0)
(0.14923973099 4.75149935239e-05 0)
(0.149244667289 4.95261713153e-05 0)
(0.149248407492 5.15550460954e-05 0)
(0.149251218438 5.36925667494e-05 0)
(0.149253296365 5.60214256779e-05 0)
(0.149254811663 5.84032466367e-05 0)
(0.149255896048 6.07648610083e-05 0)
(0.149256635854 6.30862959838e-05 0)
(0.149257128267 6.53777231218e-05 0)
(0.149257457108 6.76524013905e-05 0)
(0.149257677163 6.9921825212e-05 0)
(0.149257817559 7.21922004773e-05 0)
(0.149257899619 7.44646226613e-05 0)
(0.149257940744 7.67400267536e-05 0)
(0.14925795318 7.90181709726e-05 0)
(0.149257945639 8.12980054312e-05 0)
(0.149257924272 8.35779879779e-05 0)
(0.149257893554 8.58557437611e-05 0)
(0.149257857121 8.81284444154e-05 0)
(0.149257818862 9.03929987975e-05 0)
(0.149257783289 9.26461238265e-05 0)
(0.149257755306 9.48846805353e-05 0)
(0.149257741684 9.71054458581e-05 0)
(0.1492577523 9.93054733406e-05 0)
(0.149257800541 0.000101481785642 0)
(0.149257904856 0.000103630944787 0)
(0.14925809118 0.000105748651243 0)
(0.149258395971 0.000107829442302 0)
(0.149258871144 0.000109865984719 0)
(0.149259592662 0.000111848437251 0)
(0.149260671234 0.0001137643616 0)
(0.149262265055 0.000115588540126 0)
(0.149264623268 0.000117264700342 0)
(0.149268153856 0.000118710659044 0)
(0.149273324008 0.000119967518541 0)
(0.149280783104 0.000121230204294 0)
(0.149291565029 0.000122963371841 0)
(0.149307191271 0.00012534049932 0)
(0.149330048201 0.000128120687594 0)
(0.149363832155 0.000131079807364 0)
(0.149414136126 0.000134003467125 0)
(0.149489189057 0.00013677929096 0)
(0.1496009258 0.000140688052514 0)
(0.149772191796 0.000151559091515 0)
(0.150040748622 0.000172277876388 0)
(0.150469738801 0.000202515914643 0)
(0.151194955183 0.000232427717664 0)
(0.152494015346 0.000191620798462 0)
(0.1550230101 -0.000216773217298 0)
(0.162376097299 -0.00210989746235 0)
(0.187703085555 -0.0107875188484 0)
(0.204355486704 -0.0496545624823 0)
(0.965408257786 0.289214703141 0)
(0.961962877013 0.252656037644 0)
(0.823574427835 0.159021439461 0)
(0.698139420889 0.0959957292102 0)
(0.610225531645 0.0582481123635 0)
(0.548971575132 0.0362148515717 0)
(0.506588987342 0.0231612836218 0)
(0.477567381954 0.0151375139789 0)
(0.457745619089 0.0100177540638 0)
(0.444228602477 0.00665814031726 0)
(0.435053455031 0.00441555549967 0)
(0.428873289878 0.00290686496895 0)
(0.424754389712 0.0018910572806 0)
(0.422046856985 0.00121004379345 0)
(0.42029803843 0.000757161314053 0)
(0.419193449443 0.000459253127809 0)
(0.41851586594 0.000265851472811 0)
(0.418116742163 0.000142396043206 0)
(0.417896162386 6.6105813162e-05 0)
(0.417787135108 2.30880111516e-05 0)
(0.417745744769 1.40296213466e-06 0)
(0.417742490952 -1.01689917225e-05 0)
(0.41775711129 -1.37213372877e-05 0)
(0.417779092558 -1.32757248232e-05 0)
(0.417803409534 -1.08442708814e-05 0)
(0.417826803275 -7.50179765564e-06 0)
(0.417847580963 -3.88581335819e-06 0)
(0.417865144361 -3.66237971641e-07 0)
(0.417879497372 2.85554308919e-06 0)
(0.417890954979 5.67552225124e-06 0)
(0.417899988446 8.02943896981e-06 0)
(0.417907090676 9.83253854914e-06 0)
(0.417912462884 1.1002361311e-05 0)
(0.417916339212 1.18547750779e-05 0)
(0.417919095732 1.26778385886e-05 0)
(0.417921007112 1.34348027228e-05 0)
(0.417922316698 1.41081425513e-05 0)
(0.417923215989 1.47229315393e-05 0)
(0.417923832004 1.5307862877e-05 0)
(0.417924236733 1.58767030785e-05 0)
(0.417924483295 1.64296826736e-05 0)
(0.417924615247 1.69717861963e-05 0)
(0.417924663544 1.75070163092e-05 0)
(0.417924650845 1.80388665214e-05 0)
(0.417924593137 1.8570688586e-05 0)
(0.417924502148 1.91045683841e-05 0)
(0.417924388122 1.96421885678e-05 0)
(0.417924261369 2.01853887514e-05 0)
(0.417924133513 2.07359244419e-05 0)
(0.417924017879 2.12957388073e-05 0)
(0.417923932206 2.18648280328e-05 0)
(0.417923901554 2.24433355052e-05 0)
(0.417923959861 2.30314070267e-05 0)
(0.417924153928 2.36288573316e-05 0)
(0.417924549629 2.42352226931e-05 0)
(0.417925239922 2.48501009076e-05 0)
(0.417926357763 2.54698384543e-05 0)
(0.417928098913 2.60823668691e-05 0)
(0.417930742617 2.66722205613e-05 0)
(0.417934678418 2.72074771458e-05 0)
(0.417940514378 2.76375726997e-05 0)
(0.417949349451 2.79156986686e-05 0)
(0.417962668958 2.82031342956e-05 0)
(0.417982615736 2.77394823949e-05 0)
(0.418011948576 2.51125999899e-05 0)
(0.418054274876 1.9266919882e-05 0)
(0.418115794367 9.39763934374e-06 0)
(0.418206629123 -6.03058705532e-06 0)
(0.418342379325 -2.95426362779e-05 0)
(0.418547938021 -6.48182284369e-05 0)
(0.418865197943 -0.000116045399632 0)
(0.419363742591 -0.000188188778462 0)
(0.420157022852 -0.000307970937373 0)
(0.42144867221 -0.000532939117511 0)
(0.423630273664 -0.000999890401491 0)
(0.427420395953 -0.00209046553858 0)
(0.434240943557 -0.00485606930079 0)
(0.448266370719 -0.0122528662123 0)
(0.474642774418 -0.034238436975 0)
(0.478159366317 -0.0987600835004 0)
(1.02222096935 0.238416183997 0)
(1.08213754785 0.295926648927 0)
(1.03447726253 0.239503062671 0)
(0.954615461459 0.174290161123 0)
(0.879992123933 0.121345465672 0)
(0.818614519864 0.0830993820347 0)
(0.771410950707 0.0567316657095 0)
(0.736634506793 0.0387409678385 0)
(0.711624565045 0.0264327870152 0)
(0.693916769985 0.0179731052333 0)
(0.681541577477 0.0121424487767 0)
(0.673000302884 0.0081249091214 0)
(0.667180856461 0.00536632188156 0)
(0.663271906064 0.00348444530427 0)
(0.660688755492 0.00221256164523 0)
(0.659014453023 0.00136338148482 0)
(0.657954795214 0.000805242924151 0)
(0.657304526176 0.000445915202822 0)
(0.656922131766 0.000221066218969 0)
(0.656710590356 8.55781229531e-05 0)
(0.656603749099 8.3540542973e-06 0)
(0.65656222238 -3.3725406508e-05 0)
(0.656558343456 -5.68614150889e-05 0)
(0.656571839419 -6.68814619571e-05 0)
(0.656593388896 -6.8489554267e-05 0)
(0.656617228763 -6.55685184315e-05 0)
(0.656640052347 -6.0557601907e-05 0)
(0.656660253235 -5.48674215428e-05 0)
(0.656677246142 -4.92826434362e-05 0)
(0.656691008683 -4.42102995179e-05 0)
(0.656701786498 -3.98454035259e-05 0)
(0.656709962967 -3.63063415573e-05 0)
(0.656716232878 -3.36990790629e-05 0)
(0.656721288787 -3.18578565266e-05 0)
(0.65672517156 -3.08128744297e-05 0)
(0.656727895085 -3.03063005866e-05 0)
(0.656729773553 -3.02511639997e-05 0)
(0.656731086226 -3.05624912141e-05 0)
(0.656732001058 -3.10904617455e-05 0)
(0.656732608215 -3.17526860057e-05 0)
(0.656732982291 -3.25199272028e-05 0)
(0.656733189129 -3.33570912703e-05 0)
(0.656733274278 -3.42391704782e-05 0)
(0.656733271702 -3.51466866303e-05 0)
(0.656733205784 -3.60641751267e-05 0)
(0.656733094566 -3.69812257288e-05 0)
(0.656732954077 -3.78905037897e-05 0)
(0.656732800243 -3.87864960762e-05 0)
(0.656732650342 -3.96649354348e-05 0)
(0.656732522533 -4.0520451005e-05 0)
(0.656732440987 -4.13495427849e-05 0)
(0.656732441522 -4.21481223417e-05 0)
(0.656732573416 -4.29144148394e-05 0)
(0.656732905519 -4.36517362898e-05 0)
(0.656733535671 -4.43739413873e-05 0)
(0.656734600304 -4.51118946163e-05 0)
(0.656736289292 -4.59232934322e-05 0)
(0.656738884912 -4.69025697121e-05 0)
(0.656742797493 -4.81727016654e-05 0)
(0.656748623356 -4.99575073463e-05 0)
(0.656757303607 -5.27723570685e-05 0)
(0.656770488895 -5.76016924439e-05 0)
(0.656789478791 -6.52628762778e-05 0)
(0.656815719252 -7.66146368758e-05 0)
(0.656853080101 -9.33574796971e-05 0)
(0.656908275783 -0.000117882583431 0)
(0.656990675501 -0.000153391353783 0)
(0.657114071668 -0.000205173767232 0)
(0.657300283804 -0.000281750588865 0)
(0.657584706848 -0.000396995272704 0)
(0.658025468047 -0.000575254225182 0)
(0.658711751991 -0.000863786888737 0)
(0.659790597022 -0.00135264812216 0)
(0.661519508048 -0.00221492397289 0)
(0.664340569053 -0.00381309071321 0)
(0.668949389049 -0.00694581005266 0)
(0.676371592626 -0.013351438447 0)
(0.688614577251 -0.0268404379718 0)
(0.705236658618 -0.0563122075241 0)
(0.700484681302 -0.113067259103 0)
(1.02251475855 0.170807148582 0)
(1.101389775 0.276496473659 0)
(1.11752429589 0.266664794306 0)
(1.09214665541 0.219901694769 0)
(1.05187822064 0.1681688444 0)
(1.01020830325 0.123567394463 0)
(0.973494783265 0.0888375203779 0)
(0.943864661775 0.0630063714083 0)
(0.921142918615 0.0442232048506 0)
(0.904284205198 0.030742394146 0)
(0.892075015308 0.0211562958967 0)
(0.883404672165 0.0143954704299 0)
(0.877352848385 0.00966794996972 0)
(0.873197903123 0.00639383857094 0)
(0.87039314553 0.00415116567526 0)
(0.868534277377 0.00263449116702 0)
(0.86732790244 0.00162401691359 0)
(0.866564522276 0.000962674503554 0)
(0.866096788286 0.000539119861118 0)
(0.865822569365 0.000275149949317 0)
(0.865671748108 0.000117063353684 0)
(0.865595519194 2.87864434345e-05 0)
(0.865564482606 -1.9331935538e-05 0)
(0.865561695427 -4.12693303002e-05 0)
(0.865573059788 -4.76741582191e-05 0)
(0.865590087009 -4.55338695561e-05 0)
(0.865608418755 -3.91642543825e-05 0)
(0.865625781325 -3.11529020966e-05 0)
(0.865641090701 -2.29711411266e-05 0)
(0.86565397936 -1.5386449016e-05 0)
(0.865664478415 -8.72796436452e-06 0)
(0.865672791077 -3.04777630917e-06 0)
(0.865679170343 1.73206620961e-06 0)
(0.865683818494 5.46625258399e-06 0)
(0.865687156636 8.03270540808e-06 0)
(0.86568957453 9.78977134872e-06 0)
(0.865691223312 1.11424430248e-05 0)
(0.865692400501 1.22862990866e-05 0)
(0.865693282765 1.32545958781e-05 0)
(0.865693888546 1.41399129062e-05 0)
(0.86569426646 1.4933637518e-05 0)
(0.865694481672 1.5658419804e-05 0)
(0.865694573524 1.63299122768e-05 0)
(0.865694573378 1.69658703811e-05 0)
(0.865694503052 1.75799337458e-05 0)
(0.865694378275 1.81821946675e-05 0)
(0.86569421441 1.87801142804e-05 0)
(0.865694027763 1.93791700615e-05 0)
(0.865693839153 1.99863015174e-05 0)
(0.86569367168 2.06121516012e-05 0)
(0.865693555507 2.12424995598e-05 0)
(0.865693532438 2.18639636699e-05 0)
(0.865693656029 2.24596050577e-05 0)
(0.865693996507 2.3003493423e-05 0)
(0.865694648905 2.34607179637e-05 0)
(0.865695744191 2.37991015066e-05 0)
(0.865697469272 2.39681979901e-05 0)
(0.865700121977 2.38539311764e-05 0)
(0.865704105829 2.33137833976e-05 0)
(0.865709832439 2.19289904239e-05 0)
(0.865717795478 1.91395154416e-05 0)
(0.865729608051 1.42183731424e-05 0)
(0.865747847658 5.34727731456e-06 0)
(0.865775494726 -9.05026331907e-06 0)
(0.865816415424 -3.09729746761e-05 0)
(0.865876536459 -6.43902728238e-05 0)
(0.865965201982 -0.000116177876519 0)
(0.866096927604 -0.000197094051201 0)
(0.866294264 -0.000324394886608 0)
(0.866592028733 -0.000526548068657 0)
(0.867043819633 -0.000852487251594 0)
(0.86773468615 -0.00138912652487 0)
(0.868800947127 -0.00228519292524 0)
(0.870455797257 -0.00381520487156 0)
(0.873018010708 -0.00650328120687 0)
(0.876886291543 -0.0113585980884 0)
(0.882382839537 -0.0202498043822 0)
(0.889690417087 -0.0364468059819 0)
(0.896363484148 -0.0654801411829 0)
(0.886531632812 -0.110020461594 0)
(1.0128787548 0.118961018767 0)
(1.08820672483 0.231806931666 0)
(1.13741370434 0.25310675975 0)
(1.15409091465 0.228992749837 0)
(1.14994216982 0.188368356644 0)
(1.13538472888 0.14657984327 0)
(1.11758903519 0.11015096635 0)
(1.10059510208 0.0808162239587 0)
(1.0861246843 0.0582265791347 0)
(1.07459105092 0.0413189882925 0)
(1.06579160701 0.0289160237801 0)
(1.05928814399 0.0199601034789 0)
(1.05459993467 0.0135815632207 0)
(1.05129095369 0.00909744568251 0)
(1.04900005458 0.00598615579579 0)
(1.04744363161 0.00385696760228 0)
(1.04640677972 0.00242159848852 0)
(1.04573088705 0.00147014988753 0)
(1.04530135478 0.000851700717886 0)
(1.04503688047 0.000459013977516 0)
(1.04488054004 0.000216753074878 0)
(1.04479294527 7.3012793439e-05 0)
(1.04474910106 -5.5099711384e-06 0)
(1.04473222222 -4.40153248855e-05 0)
(1.0447299921 -5.9393266162e-05 0)
(1.04473549719 -6.1727284601e-05 0)
(1.04474446727 -5.72536439935e-05 0)
(1.0447543746 -4.98113768299e-05 0)
(1.0447638394 -4.16516218792e-05 0)
(1.04477219107 -3.3995198232e-05 0)
(1.04477917877 -2.74285108552e-05 0)
(1.04478478907 -2.21548965974e-05 0)
(1.04478916744 -1.81305210412e-05 0)
(1.04479252356 -1.51423889154e-05 0)
(1.04479511249 -1.28096485802e-05 0)
(1.04479722857 -1.10132035085e-05 0)
(1.04479898299 -9.52491505907e-06 0)
(1.04480032268 -8.23552916261e-06 0)
(1.04480131707 -7.21768374123e-06 0)
(1.04480201678 -6.549806245e-06 0)
(1.04480244454 -6.17139546345e-06 0)
(1.0448026875 -5.96400519213e-06 0)
(1.04480279286 -5.87789527552e-06 0)
(1.04480279844 -5.85998716963e-06 0)
(1.04480272727 -5.8739373584e-06 0)
(1.04480259775 -5.89927258157e-06 0)
(1.04480242712 -5.92560234576e-06 0)
(1.04480223572 -5.94845309402e-06 0)
(1.04480205086 -5.97051978766e-06 0)
(1.04480187985 -6.0056796679e-06 0)
(1.04480173659 -6.03786765477e-06 0)
(1.04480166609 -6.06466950976e-06 0)
(1.0448017237 -6.09267017823e-06 0)
(1.04480198665 -6.13755016804e-06 0)
(1.04480258096 -6.24051774545e-06 0)
(1.04480367786 -6.52565163156e-06 0)
(1.04480546708 -7.24579942851e-06 0)
(1.04480825657 -8.67508147145e-06 0)
(1.04481235241 -1.13111571292e-05 0)
(1.04481822721 -1.51515853729e-05 0)
(1.04482689069 -2.00829759918e-05 0)
(1.044839497 -2.6332787592e-05 0)
(1.04485735247 -3.61684249784e-05 0)
(1.04488275533 -5.2574262637e-05 0)
(1.04491917799 -7.97651071415e-05 0)
(1.0449717767 -0.000123983775973 0)
(1.04504815723 -0.000194999264322 0)
(1.04515967048 -0.000308389407762 0)
(1.04532346539 -0.000489315567311 0)
(1.0455654064 -0.00077879199052 0)
(1.04592417024 -0.0012441202145 0)
(1.04645760262 -0.00199691367708 0)
(1.04724979924 -0.00322766028665 0)
(1.04841366751 -0.00526704749705 0)
(1.05007645152 -0.00869175381636 0)
(1.05229471574 -0.0144952313517 0)
(1.0548243588 -0.0242840174627 0)
(1.05687572827 -0.0403672420408 0)
(1.05574318871 -0.0655830610234 0)
(1.04213010863 -0.0994330825797 0)
(1.00447483838 0.08140399236 0)
(1.06917239021 0.181288533681 0)
(1.13080572024 0.216950414118 0)
(1.17375005176 0.210789152234 0)
(1.19865271395 0.183690075197 0)
(1.2101999561 0.14975168333 0)
(1.21350264721 0.116779145646 0)
(1.2125173435 0.0882206807028 0)
(1.20973109916 0.0650481546281 0)
(1.20651132569 0.047020913105 0)
(1.20351927636 0.0334068128954 0)
(1.20101160983 0.023355736707 0)
(1.19903462498 0.0160720175026 0)
(1.19753897037 0.0108795167359 0)
(1.19644152411 0.0072341904248 0)
(1.19565581509 0.00471352020668 0)
(1.19510514035 0.0029976301871 0)
(1.1947267495 0.00184916123941 0)
(1.1944717912 0.0010949598543 0)
(1.19430350341 0.000610609615591 0)
(1.19419488599 0.000307983492819 0)
(1.19412662246 0.000125764230977 0)
(1.19408559299 2.22177028575e-05 0)
(1.19406235389 -3.24583950047e-05 0)
(1.19405007319 -5.72777207528e-05 0)
(1.19404459453 -6.46038633269e-05 0)
(1.19404311762 -6.2382084444e-05 0)
(1.1940438241 -5.55272611567e-05 0)
(1.19404559823 -4.69496520499e-05 0)
(1.19404778133 -3.82629306058e-05 0)
(1.19405000039 -3.0268086906e-05 0)
(1.19405206248 -2.32707902068e-05 0)
(1.19405389783 -1.72941181888e-05 0)
(1.19405550056 -1.22655194041e-05 0)
(1.19405688673 -8.07676486423e-06 0)
(1.1940580762 -4.67482739491e-06 0)
(1.19405904185 -2.06272164581e-06 0)
(1.19405972989 -1.72520249785e-07 0)
(1.19406010063 1.14418333599e-06 0)
(1.19406023044 1.99849663285e-06 0)
(1.19406029979 2.67533326606e-06 0)
(1.1940603451 3.27655010728e-06 0)
(1.19406034405 3.80380885509e-06 0)
(1.19406031154 4.26027158745e-06 0)
(1.19406023906 4.66137133879e-06 0)
(1.19406012168 5.02429724376e-06 0)
(1.19405996234 5.36091362601e-06 0)
(1.19405976816 5.67486599949e-06 0)
(1.1940595473 5.95852894087e-06 0)
(1.19405934038 6.19385513771e-06 0)
(1.19405919564 6.40320105291e-06 0)
(1.19405914323 6.58044539403e-06 0)
(1.19405923111 6.69888544483e-06 0)
(1.19405951511 6.71686556543e-06 0)
(1.19406002319 6.57299692776e-06 0)
(1.19406074276 6.17164561459e-06 0)
(1.19406177479 5.37622931149e-06 0)
(1.19406327143 3.77373913564e-06 0)
(1.19406593174 9.88498466229e-07 0)
(1.19407077762 -3.29236749841e-06 0)
(1.19407829509 -9.85299636651e-06 0)
(1.19408843568 -2.00589840081e-05 0)
(1.19410199186 -3.59390926715e-05 0)
(1.19412095489 -6.04136889971e-05 0)
(1.194147453 -9.80665148987e-05 0)
(1.19418431335 -0.000156217412451 0)
(1.19423553198 -0.000246513886023 0)
(1.19430674835 -0.000387436220979 0)
(1.19440585542 -0.000608441113446 0)
(1.19454363958 -0.000956855697726 0)
(1.19473415299 -0.00150917927138 0)
(1.1949941765 -0.00238967259558 0)
(1.19533853489 -0.00380152289191 0)
(1.1957644934 -0.00607758513186 0)
(1.19621172477 -0.00975656988569 0)
(1.19646050761 -0.0156820658292 0)
(1.19592406515 -0.0250646066303 0)
(1.1934479856 -0.0393592822287 0)
(1.18669746615 -0.0598082943655 0)
(1.17015475006 -0.0851006188617 0)
(0.998962329429 0.054431619923 0)
(1.05310958584 0.133401602677 0)
(1.11628271652 0.170777554141 0)
(1.17301276861 0.175143869433 0)
(1.21791252587 0.159583605536 0)
(1.25049865624 0.134951021201 0)
(1.27288500212 0.108411659719 0)
(1.2877673249 0.08388497619 0)
(1.29745279633 0.063056577793 0)
(1.30366087977 0.0462999274836 0)
(1.30759248644 0.0333205211498 0)
(1.31005385887 0.0235495301694 0)
(1.31157379876 0.0163599134105 0)
(1.31249511903 0.0111713200699 0)
(1.31303883123 0.00749151080931 0)
(1.31334694363 0.00492448909115 0)
(1.3135103798 0.00316295733068 0)
(1.31358703309 0.00197475269042 0)
(1.3136134334 0.00118819617745 0)
(1.31361230792 0.000678626875016 0)
(1.31359749397 0.000357004405163 0)
(1.313577196 0.000160748648988 0)
(1.31355622433 4.64625739033e-05 0)
(1.31353695144 -1.58770404826e-05 0)
(1.31352031626 -4.60659846765e-05 0)
(1.31350665097 -5.70762768841e-05 0)
(1.31349577119 -5.73309324512e-05 0)
(1.31348733983 -5.20921023774e-05 0)
(1.31348096845 -4.45289431238e-05 0)
(1.3134762712 -3.64661938423e-05 0)
(1.31347289656 -2.88765108874e-05 0)
(1.31347054056 -2.22147027236e-05 0)
(1.31346894343 -1.66309522841e-05 0)
(1.31346787635 -1.21337635021e-05 0)
(1.31346717376 -8.65646714311e-06 0)
(1.3134667387 -6.09805023319e-06 0)
(1.31346647024 -4.32152936977e-06 0)
(1.31346627898 -3.12041041752e-06 0)
(1.3134661622 -2.26391957046e-06 0)
(1.31346620717 -1.54777220992e-06 0)
(1.31346637662 -9.72813250048e-07 0)
(1.31346649335 -5.60039921596e-07 0)
(1.31346650361 -2.008251509e-07 0)
(1.31346643932 1.29365317831e-07 0)
(1.3134663264 4.33441473915e-07 0)
(1.31346617474 7.19916396553e-07 0)
(1.31346598758 9.99792304789e-07 0)
(1.31346576782 1.2827889784e-06 0)
(1.31346552485 1.57838021542e-06 0)
(1.31346529164 1.89118091867e-06 0)
(1.31346509198 2.1713913586e-06 0)
(1.31346493392 2.37933672336e-06 0)
(1.3134648478 2.469733012e-06 0)
(1.31346488807 2.37868123378e-06 0)
(1.31346514463 2.02140455323e-06 0)
(1.31346573749 1.31805570369e-06 0)
(1.31346661884 2.06356692103e-07 0)
(1.31346791934 -1.47701403705e-06 0)
(1.31347006327 -4.00381762011e-06 0)
(1.31347323225 -8.09957252158e-06 0)
(1.31347765483 -1.50421764644e-05 0)
(1.31348356364 -2.63908823919e-05 0)
(1.31349124104 -4.37463626533e-05 0)
(1.3135011766 -7.02889756861e-05 0)
(1.31351369222 -0.00011105019043 0)
(1.31352887736 -0.000173779591037 0)
(1.3135463589 -0.000270560900805 0)
(1.31356483607 -0.000420351226839 0)
(1.31358113446 -0.000652964789687 0)
(1.3135883687 -0.00101561290995 0)
(1.31357250475 -0.0015832781473 0)
(1.31350613826 -0.00247497726681 0)
(1.31333509892 -0.00387790119524 0)
(1.31295189542 -0.00608430063124 0)
(1.31214664664 -0.00953847667621 0)
(1.31051418765 -0.0148816663012 0)
(1.30730149337 -0.0229416680368 0)
(1.30129949737 -0.0345581844726 0)
(1.29064137648 -0.0501677342325 0)
(1.27185672118 -0.0685427747461 0)
(0.995736078123 0.0346338544611 0)
(1.04179516271 0.0905689166217 0)
(1.10222842499 0.121549561515 0)
(1.16491417081 0.129605832273 0)
(1.22202573338 0.122009268618 0)
(1.26951900538 0.106019940634 0)
(1.30680233717 0.0870975602555 0)
(1.33499546675 0.0686366869684 0)
(1.35574490161 0.0523698461243 0)
(1.37069630873 0.0389256257409 0)
(1.38128291097 0.02829808133 0)
(1.38866284803 0.0201712847927 0)
(1.39373052063 0.0141175174215 0)
(1.39715681236 0.00970534222709 0)
(1.39943457308 0.00655060053667 0)
(1.4009199156 0.00433445890106 0)
(1.40186648395 0.00280414797663 0)
(1.40245252759 0.00176574482029 0)
(1.4028016489 0.00107419529967 0)
(1.40299836956 0.00062323355341 0)
(1.40309961437 0.000336406157766 0)
(1.40314309087 0.000159618642281 0)
(1.40315337416 5.51585314154e-05 0)
(1.40314590829 -3.0044111363e-06 0)
(1.40313017229 -3.21295478013e-05 0)
(1.40311179424 -4.3897275844e-05 0)
(1.40309378185 -4.57671772514e-05 0)
(1.40307765973 -4.24246369818e-05 0)
(1.40306402911 -3.67330015171e-05 0)
(1.40305296325 -3.03695229552e-05 0)
(1.40304425926 -2.42483164763e-05 0)
(1.40303759145 -1.8817157121e-05 0)
(1.40303259816 -1.4244360449e-05 0)
(1.40302892882 -1.0532334123e-05 0)
(1.40302628571 -7.5801823232e-06 0)
(1.40302443669 -5.26310834345e-06 0)
(1.40302320535 -3.45867499999e-06 0)
(1.40302244167 -2.02321033334e-06 0)
(1.40302198146 -8.51348197321e-07 0)
(1.40302162927 8.02831591155e-08 0)
(1.40302131705 7.88399484007e-07 0)
(1.40302112734 1.27691114541e-06 0)
(1.40302104594 1.64519857197e-06 0)
(1.4030209824 1.96262706135e-06 0)
(1.40302090355 2.2638755596e-06 0)
(1.40302080151 2.56688653556e-06 0)
(1.40302067444 2.881083944e-06 0)
(1.40302052442 3.21104923679e-06 0)
(1.40302035302 3.55701139933e-06 0)
(1.40302015299 3.91017845965e-06 0)
(1.40301993529 4.22941873064e-06 0)
(1.40301973336 4.48207717264e-06 0)
(1.4030195759 4.62876743905e-06 0)
(1.40301948766 4.61209917518e-06 0)
(1.40301948415 4.34247692521e-06 0)
(1.40301957119 3.67781791611e-06 0)
(1.40301977915 2.41041515092e-06 0)
(1.4030200812 4.31789537498e-07 0)
(1.40302071706 -2.70636934198e-06 0)
(1.40302189444 -7.74810599989e-06 0)
(1.4030234363 -1.54968675949e-05 0)
(1.40302501898 -2.72787889274e-05 0)
(1.40302617704 -4.49500171726e-05 0)
(1.4030261719 -7.14988081992e-05 0)
(1.40302351633 -0.00011151730368 0)
(1.40301547736 -0.000172038547763 0)
(1.40299725558 -0.000263937370517 0)
(1.40296067496 -0.000404089933733 0)
(1.40289181357 -0.000618557708202 0)
(1.40276697968 -0.000947946053568 0)
(1.40254616137 -0.00145556792795 0)
(1.40216304029 -0.00223983777267 0)
(1.40150613431 -0.00344977885262 0)
(1.40038719279 -0.00530905258572 0)
(1.39849305604 -0.00814036754426 0)
(1.39531076532 -0.0123783692648 0)
(1.39002754744 -0.0185337807454 0)
(1.38149574024 -0.027044005312 0)
(1.36822005436 -0.0379903946919 0)
(1.3478096246 -0.0504802513641 0)
(0.994011535522 0.0192358009877 0)
(1.0348476555 0.0523338361989 0)
(1.09199266568 0.0723631244225 0)
(1.15662425501 0.0791292306537 0)
(1.22032123423 0.0761045471098 0)
(1.27701953867 0.0673339743171 0)
(1.32424428934 0.0561509084549 0)
(1.36181585009 0.0447990177447 0)
(1.39068543558 0.0345303857424 0)
(1.41226089119 0.0258814414846 0)
(1.42801837647 0.0189465333131 0)
(1.43929900997 0.013584991185 0)
(1.44722825879 0.00955654279231 0)
(1.45270433166 0.0066001231225 0)
(1.45641917567 0.00447419697835 0)
(1.45889168225 0.00297351910216 0)
(1.46050256955 0.00193277307307 0)
(1.46152599013 0.00122369676119 0)
(1.46215603025 0.000749551961649 0)
(1.46252787948 0.000439017533355 0)
(1.46273418081 0.000240519322765 0)
(1.46283734739 0.000117408654209 0)
(1.46287867347 4.40449597596e-05 0)
(1.46288493562 2.68585758695e-06 0)
(1.46287283453 -1.84499802773e-05 0)
(1.46285250758 -2.74439417966e-05 0)
(1.46282998145 -2.94434623823e-05 0)
(1.46280846938 -2.76928731785e-05 0)
(1.46278949837 -2.41899839234e-05 0)
(1.46277361311 -2.01163597672e-05 0)
(1.46276080345 -1.61207014831e-05 0)
(1.46275077462 -1.25255672002e-05 0)
(1.46274311554 -9.4580712554e-06 0)
(1.4627373935 -6.92883613743e-06 0)
(1.4627332102 -4.88412266802e-06 0)
(1.46273022329 -3.25459808435e-06 0)
(1.46272814477 -1.97736786611e-06 0)
(1.46272671825 -1.01100211861e-06 0)
(1.46272573177 -3.11067843757e-07 0)
(1.46272512107 2.09430635157e-07 0)
(1.46272477397 6.89165001754e-07 0)
(1.46272454075 1.16240812079e-06 0)
(1.4627243882 1.58384863504e-06 0)
(1.46272427762 1.9612796545e-06 0)
(1.46272418014 2.31461298367e-06 0)
(1.46272407656 2.65681279462e-06 0)
(1.46272395316 2.99326283502e-06 0)
(1.46272380114 3.32184924161e-06 0)
(1.462723616 3.6327625456e-06 0)
(1.46272339516 3.91297416666e-06 0)
(1.46272314166 4.15441965234e-06 0)
(1.46272286298 4.32562698368e-06 0)
(1.46272256693 4.37506098232e-06 0)
(1.46272226416 4.23263589027e-06 0)
(1.46272197246 3.8077935261e-06 0)
(1.4627217144 2.99280049621e-06 0)
(1.46272145318 1.66948549511e-06 0)
(1.46272110052 -3.06100066938e-07 0)
(1.46272053632 -3.14920232479e-06 0)
(1.46271962281 -7.75130934041e-06 0)
(1.46271808151 -1.48911065853e-05 0)
(1.46271523676 -2.56634978745e-05 0)
(1.46270997401 -4.16164984695e-05 0)
(1.46270048791 -6.51359261375e-05 0)
(1.46268371792 -9.9826158866e-05 0)
(1.46265453013 -0.000151083328485 0)
(1.46260441948 -0.000227090750814 0)
(1.46251963084 -0.000340326630061 0)
(1.46237771521 -0.000509408424505 0)
(1.4621418562 -0.000762752745042 0)
(1.46175210358 -0.00114409117106 0)
(1.46111387815 -0.00172109725851 0)
(1.46007613597 -0.00258952202153 0)
(1.45839798916 -0.00388886779223 0)
(1.45570562691 -0.00581147688003 0)
(1.4514338348 -0.00860040144507 0)
(1.44476252753 -0.0125156810626 0)
(1.43462308758 -0.017737588902 0)
(1.41975673867 -0.0242141497936 0)
(1.39831865991 -0.0313990898545 0)
(0.993269671708 0.00617014548437 0)
(1.03158102028 0.0171020425269 0)
(1.0867218581 0.023990646363 0)
(1.15174560133 0.0265606652657 0)
(1.21823543525 0.0258180603728 0)
(1.27925782856 0.0230488900411 0)
(1.33140146072 0.0193656374591 0)
(1.37377610159 0.0155468658324 0)
(1.40691066127 0.0120449395592 0)
(1.43203327469 0.00906640998168 0)
(1.45060230275 0.00666060532387 0)
(1.46403002568 0.00479010193488 0)
(1.47355034361 0.00337843839884 0)
(1.48017583399 0.00233874769893 0)
(1.48470250717 0.00158892285077 0)
(1.4877364452 0.0010582968347 0)
(1.48972760612 0.000689469440957 0)
(1.49100306061 0.000437643586466 0)
(1.49179616583 0.000268889278091 0)
(1.49227056189 0.000158112916717 0)
(1.49253907924 8.71247644668e-05 0)
(1.49267818091 4.29734756739e-05 0)
(1.49273873947 1.65822600883e-05 0)
(1.49275393826 1.66072193804e-06 0)
(1.49274472638 -6.07224942047e-06 0)
(1.49272396385 -9.41720463068e-06 0)
(1.4926993459 -1.02227609574e-05 0)
(1.49267510052 -9.65850348813e-06 0)
(1.49265332478 -8.44389655986e-06 0)
(1.49263486002 -6.99619317138e-06 0)
(1.492619828 -5.55636876644e-06 0)
(1.49260796576 -4.24401360413e-06 0)
(1.49259884348 -3.10701652565e-06 0)
(1.49259198532 -2.15119381875e-06 0)
(1.49258693748 -1.36050378034e-06 0)
(1.49258329968 -7.13302178243e-07 0)
(1.4925807366 -1.88214388958e-07 0)
(1.49257897849 2.36878435132e-07 0)
(1.49257781973 6.0792572169e-07 0)
(1.49257708318 9.76396354177e-07 0)
(1.49257661577 1.28067593577e-06 0)
(1.49257632487 1.56358220221e-06 0)
(1.492576153 1.84269819926e-06 0)
(1.49257604805 2.12840818879e-06 0)
(1.49257597109 2.42774095821e-06 0)
(1.49257589561 2.74318741249e-06 0)
(1.4925758028 3.07386224834e-06 0)
(1.49257567914 3.41543185892e-06 0)
(1.49257551468 3.75931201066e-06 0)
(1.49257530089 4.09140832259e-06 0)
(1.49257503181 4.39155645684e-06 0)
(1.4925747029 4.62694056468e-06 0)
(1.49257430854 4.75295974341e-06 0)
(1.4925738366 4.70719832454e-06 0)
(1.49257326723 4.40475354446e-06 0)
(1.49257257484 3.7261740436e-06 0)
(1.49257174311 2.52227121069e-06 0)
(1.49257063093 7.01646593772e-07 0)
(1.49256883083 -1.97166373899e-06 0)
(1.49256605223 -6.1302461244e-06 0)
(1.49256189381 -1.23074040136e-05 0)
(1.4925553287 -2.12786303833e-05 0)
(1.49254474791 -3.41338169198e-05 0)
(1.49252761 -5.24291860247e-05 0)
(1.49249980216 -7.83685776541e-05 0)
(1.49245462996 -0.000114988301947 0)
(1.49238121958 -0.000166662341698 0)
(1.49226250068 -0.000239898707101 0)
(1.49207112416 -0.000343209375399 0)
(1.49176251375 -0.000489130575118 0)
(1.49126437842 -0.000697805789071 0)
(1.49046797224 -0.00100301593507 0)
(1.48920397116 -0.00143725995494 0)
(1.48720660202 -0.00204801773921 0)
(1.48407750612 -0.00289663789153 0)
(1.47923700831 -0.00405060519844 0)
(1.47187850127 -0.00556418742416 0)
(1.4609888109 -0.00743887362701 0)
(1.44542122613 -0.00958061105454 0)
(1.42356702401 -0.0117408950415 0)
(0.993270469711 -0.0061684061871 0)
(1.03158100357 -0.0171003787741 0)
(1.08672179298 -0.0239897633491 0)
(1.15174564043 -0.0265602469879 0)
(1.21823551488 -0.0258179912876 0)
(1.27925793224 -0.023049106008 0)
(1.33140158801 -0.0193660409088 0)