/*--------------------------------*- C++ -*----------------------------------*\
| =========                 |                                                 |
| \\      /  F ield         | OpenFOAM: The Open Source CFD Toolbox           |
|  \\    /   O peration     | Version:  2106                                  |
|   \\  /    A nd           | Website:  www.openfoam.com                      |
|    \\/     M anipulation  |                                                 |
\*---------------------------------------------------------------------------*/
FoamFile
{
    version     2.0;
    format      ascii;
    arch        "LSB;label=32;scalar=64";
    class       volScalarField;
    location    "0.075";
    object      p;
}
// * * * * * * * * * * * * * * * * * * * * * * * * * * * * * * * * * * * * * //

dimensions      [0 2 -2 0 0 0 0];

internalField   nonuniform List<scalar> 
11200
(
148.98945578
146.060853617
144.947002961
144.419672778
144.052345597
143.757572188
143.495937067
143.247412181
143.002912844
142.757868983
142.509581977
142.256294819
141.99677268
141.730076903
141.455437342
141.172176999
140.879665988
140.577295303
140.264473113
139.940620379
139.605091077
139.257244052
138.896416832
138.521950468
138.133163605
137.729355346
137.30981146
136.873803672
136.420589706
135.949413903
135.459507994
134.95009181
134.420373421
133.869549115
133.296803937
132.701313299
132.082242764
131.438748485
130.769977851
130.075069741
129.353154681
128.603354999
127.824784967
127.016550913
126.177751166
125.307475779
124.404806029
123.468813694
122.498560068
121.493094526
120.451452476
119.372652492
118.255692521
117.099545006
115.903150694
114.665410753
113.385176743
112.061238002
110.69230594
109.276994403
107.813794792
106.3010445
104.736886632
103.119220506
101.445636597
99.7133300555
97.9189906756
96.0586585527
94.1275299453
92.1196910736
90.0277559199
87.8423740707
85.5513438144
83.1385002501
80.5817961155
77.8496515402
74.8946049086
71.6444372543
67.9471216656
63.1884299771
147.196414133
145.838239707
145.047268335
144.547254362
144.156267108
143.832387007
143.547870889
143.283277278
143.02780213
142.775296634
142.521932248
142.265193593
142.003341554
141.735097467
141.459458625
141.175588025
140.882746674
140.58025076
140.267437665
139.943637984
139.608174893
139.260433871
138.899763466
138.525475213
138.136876108
137.73326393
137.313921957
136.878119708
136.425113381
135.954146233
135.464449012
134.955240062
134.425725137
133.875103605
133.302564061
132.707282281
132.088423588
131.445144061
130.776591144
130.0819038
129.360212687
128.610640357
127.832301443
127.024302752
126.185743205
125.315713552
124.413295951
123.477563353
122.507578575
121.502392936
120.461044267
119.382554138
118.265924194
117.110131449
115.914122326
114.67680502
113.397039793
112.0736268
110.705290963
109.290663047
107.828255871
106.316434366
104.753375657
103.137017665
101.464993286
99.7345591977
97.9425005428
96.0849802318
94.1573590521
92.1539525869
90.0676917376
87.8896177856
85.6081914065
83.2082789398
80.6694927683
77.9633401451
75.0490308739
71.8686702083
68.3193186701
64.2047980958
146.201223425
145.547022734
144.994666809
144.557048691
144.185424618
143.863323447
143.574226001
143.303997288
143.043542669
142.787072932
142.530702121
142.271747169
142.008294429
141.738915098
141.462485963
141.178075968
140.88487294
140.582135797
140.269163673
139.94528303
139.609862134
139.262167873
138.901548581
138.527323778
138.138798455
137.735265819
137.316006896
136.880290287
136.42737206
135.956496006
135.466894153
134.957787487
134.428386387
133.877884049
133.305460075
132.710293131
132.091549958
131.448387776
130.779955077
130.085391695
129.363829135
128.614390893
127.836192711
127.028342707
126.189941316
125.320081096
124.417846442
123.482313142
122.51254756
121.507605386
120.46652978
119.388348788
118.272071963
117.116686014
115.921149221
114.684384272
113.405269146
112.08262577
110.715205941
109.301673647
107.840582301
106.330345647
104.769200637
103.155173928
101.486030203
99.7591789237
97.9715772845
96.1196259141
94.199010054
92.204490328
90.129615879
87.9663219582
85.7045113247
83.3312588354
80.8298288086
78.1783299049
75.3487154517
72.3092203462
69.0236825524
65.4686433716
145.651461445
145.288079834
144.888181306
144.519189841
144.181571715
143.873468051
143.588104603
143.317402451
143.05503454
142.796373654
142.538001067
142.277384253
142.012622153
141.742245954
141.465077635
141.180132405
140.886551674
140.583557509
140.270421198
139.946439087
139.610925318
139.263224734
138.902619745
138.528421263
138.13993203
137.736442293
137.317230614
136.881563626
136.428695849
135.957869798
135.468316148
134.959253815
134.429890686
133.879425727
133.307050337
132.711939607
132.093260992
131.450169715
130.781813853
130.087333452
129.365860722
128.616520353
127.8384297
127.030698832
126.19243051
125.322720143
124.420655671
123.485317272
122.515776639
121.511096008
120.470326485
119.392505743
118.276655042
117.121775391
115.926842567
114.690800708
113.412554387
112.090958874
110.724807555
109.312815524
107.853600314
106.345663458
104.787348037
103.176796361
101.511903958
99.7902708652
98.0091214228
96.1652034125
94.2546633628
92.272890599
90.2143265833
88.0722378952
85.8383864274
83.5027185225
81.0531243478
78.4754685377
75.7549405087
72.8817358963
69.8593612293
66.7248270244
145.317412623
145.0856169
144.784203799
144.473225302
144.168383694
143.876358048
143.597380812
143.328254328
143.065295247
142.805213298
142.545247631
142.283160161
142.017157433
141.745789065
141.467856635
141.182341164
140.888348028
140.585066445
140.271739866
139.94764395
139.612074096
139.264327005
138.903711365
138.529527397
138.141069112
137.737622067
137.318461799
136.882852992
136.430049107
135.95929231
135.469813732
134.960833555
134.431560792
133.88119269
133.308914814
132.713901022
132.095316396
131.452319789
130.784061782
130.089685008
129.368324019
128.619105679
127.841149564
127.033568224
126.195467369
125.325946023
124.424096548
123.489004958
122.519750014
121.515402454
120.475023693
119.397663956
118.282359823
117.128131051
115.933976323
114.698867774
113.421743984
112.101500613
110.736979208
109.326956639
107.870133015
106.365099297
104.810314572
103.204085977
101.544520297
99.8294757488
98.0565045826
96.2227845079
94.3250355033
92.3594224937
90.3214470455
88.2058413084
86.006491444
83.7164691565
81.3283381008
78.8350653967
76.2324225946
73.5248234074
70.7336338381
67.9095832031
145.114019331
144.938117082
144.696921535
144.42959417
144.152404875
143.8757639
143.604071717
143.337568242
143.074802133
142.813793259
142.552506454
142.289074197
142.021870261
141.749502657
141.470776925
141.184653539
140.890208625
140.586601179
140.273047063
139.948799003
139.613132633
139.265333493
138.904697184
138.530514381
138.142073181
137.738654616
137.319530817
136.88396407
136.431206269
135.960498602
135.471071147
134.962142718
134.432921011
133.882602819
133.310374631
132.715413986
132.096890162
131.453964683
130.785789761
130.091506658
129.370249947
128.621148078
127.843323166
127.035890838
126.197960535
125.328635943
124.427015386
123.492191494
122.523251427
121.519276154
120.479339377
119.402506159
118.287831146
117.134356062
115.941106331
114.707086861
113.431277068
112.112625711
110.750042571
109.342385222
107.888435775
106.386897683
104.83638744
103.235390428
101.582239114
99.8750834116
98.1118525021
96.2902129443
94.4075250692
92.4608031637
90.4466907778
88.3614750479
86.2011883551
83.9618869831
81.6402829936
79.2350234595
76.7491833585
74.1949510235
71.5993571828
69.0096493826
144.990901954
144.835294178
144.62899151
144.39242775
144.136950269
143.873668201
143.609052527
143.345541932
143.083407355
142.821820947
142.559448494
142.294813085
142.026484239
141.753152321
141.473643722
141.186909218
140.892002219
140.588055347
140.274259163
139.949844406
139.614068381
139.266202786
138.905535238
138.531342658
138.142908133
137.739508138
137.320411379
136.884877798
136.432157757
135.961491457
135.472108545
134.963227901
134.434057707
133.883795895
133.311630885
132.716741058
132.098295637
131.455453934
130.787364896
130.093174274
129.372021678
128.623038511
127.845349545
127.038073726
126.200324687
125.331211325
124.429838325
123.495306434
122.526712507
121.523148869
120.483703317
119.407458249
118.293489442
117.140864357
115.948639833
114.715859092
113.441547705
112.12470798
110.764315341
109.359311316
107.908590742
106.41099688
104.865301129
103.270190895
101.624254112
99.9259615229
98.1736490849
96.3655036528
94.4995565208
92.5736946167
90.5857054724
88.5333846658
86.4147575676
84.2284986013
81.9746885574
79.6561077341
77.280348292
74.8630901928
72.4313396728
70.0246476158
144.916821978
144.766811733
144.580055168
144.363948042
144.124239607
143.871415704
143.612776037
143.3520357
143.090667428
142.828744817
142.565526806
142.29988952
142.030591703
141.75641105
141.476202711
141.188915364
140.893586011
140.589325872
140.275304049
139.950732214
139.614852005
139.266925133
138.906216649
138.532008499
138.143574645
137.740186589
137.321109913
136.88560246
136.432913224
135.962281561
135.472936655
134.964097288
134.434971835
133.88475847
133.312645489
132.717811492
132.099425441
131.45664856
130.788637188
130.094537251
129.373487737
128.624622525
127.847069752
127.039952309
126.20238864
125.333493559
124.432378921
123.49815408
122.529926278
121.526801015
120.48788163
119.412269302
118.299062625
117.147356756
115.956242218
114.724803472
113.452117234
112.137250154
110.779255117
109.37716449
107.929988756
106.436706705
104.896263634
103.307562843
101.669459864
99.9807594655
98.2402168389
96.4465473799
94.5984517442
92.6946680211
90.7340679507
88.7158253144
86.6397059002
84.5065383886
82.3189622704
80.0825541849
77.8074213836
75.510281706
73.2159713469
70.9566994742
144.874545621
144.725097812
144.548681196
144.344941152
144.115406047
143.869694972
143.61533239
143.356691827
143.095983446
142.833888206
142.570089942
142.303730262
142.033716832
141.758899945
141.478161623
141.190452323
140.894798607
140.590296544
140.276099481
139.95140477
139.61544168
139.267460893
138.906724031
138.53250298
138.144068314
137.740688307
137.321626241
136.886138416
136.433472818
135.962868172
135.473553302
134.964746893
134.435657506
133.885483728
133.313414447
132.718629266
132.100299216
131.457587652
130.789648609
130.095631415
129.374678589
128.625926674
127.848506991
127.041546509
126.204168834
125.335495167
124.434645108
123.500737346
122.532890315
121.530222837
120.491854758
119.416907435
118.304503949
117.153769163
115.963829757
114.733814251
113.462852783
112.150076385
110.794615496
109.395602012
107.95216638
106.4634344
104.928530092
103.346576579
101.716700576
100.038042119
98.3097715539
96.5311193516
94.7014254429
92.8202202168
90.8873545794
88.9032028631
86.8689778537
84.7871933766
82.662331867
80.5017467059
78.3167774942
76.1239676972
73.9455303923
71.8078434722
144.855269474
144.705391452
144.533427339
144.335489886
144.110925944
143.868803991
143.616666075
143.359154823
143.098825985
142.836663648
142.57257222
142.305835361
142.035442636
141.760285532
141.479262226
141.191325244
140.895496163
140.5908632
140.276571358
139.951810344
139.615802846
139.26779413
138.907042695
138.532816098
138.144382741
137.741009217
137.321957674
136.886483683
136.433834767
135.963249406
135.473956345
134.965174401
134.436112522
133.885969912
133.313936288
132.719192265
132.10090986
131.458253058
130.7903791
130.096438788
129.375576823
128.626932555
127.849640809
127.042832953
126.205638055
125.337183932
124.436598108
123.503008791
122.535545962
121.533342564
120.495535649
119.4212674
118.309686072
117.159947036
115.971214079
114.742660942
113.473472902
112.162848339
110.809999739
109.414157284
107.97457438
106.490521068
104.961300759
103.386256108
101.764781229
100.096342315
98.3805074726
96.6169918853
94.8057227023
92.9469379882
91.0413395035
89.0903058144
87.0962052031
85.0628131535
82.9958765442
80.903806228
78.7984250401
76.69562846
74.6152811382
72.5795076971
144.855272572
144.705407985
144.533454741
144.335526454
144.110970928
143.868856543
143.616725284
143.359219861
143.098896161
142.83673838
142.572651014
142.305917812
142.035528444
141.760374535
141.47935437
141.191420556
140.89559468
140.590964953
140.276676413
139.951918864
139.615915121
139.267910567
138.907163585
138.532941939
138.144514124
137.741146892
137.322102629
136.88663716
136.433998224
135.963424425
135.474144807
134.965378649
134.436335456
133.886215101
133.314208063
132.719495848
132.101251667
131.458641238
130.790823477
130.096951111
129.376171201
128.627625938
127.850453729
127.043790468
126.206770778
125.338529145
124.438201066
123.504924364
122.537840736
121.536097431
120.498848866
119.425258218
118.314499124
117.165757741
115.978235306
114.751151074
113.483745524
112.175283939
110.82506025
109.432400834
107.99667579
106.517310202
104.993776246
103.425626078
101.812507707
100.154192777
98.4506171293
96.701934544
94.9085961403
93.0714955604
91.1921002154
89.272538892
87.3160422263
85.3272767383
83.3127951618
81.2815624905
79.2454629097
77.2196545042
75.2222147269
73.2724265914
144.874554903
144.725147736
144.548763977
144.345051593
144.115541854
143.869853435
143.615510684
143.356887475
143.096194381
142.834112702
142.570326555
142.303977805
142.033974431
141.759167096
141.478438162
141.190738308
140.895094155
140.590601761
140.276414566
139.95173022
139.615778381
139.267810218
138.907086389
138.532880073
138.144461934
137.74110068
137.322060276
136.886597734
136.433961658
135.963391375
135.474116557
134.965357124
134.436323273
133.886215622
133.314225474
132.719535332
132.101319647
131.458745615
130.790973858
130.097159039
129.3764505
128.627993265
127.850929363
127.044399216
126.207542922
125.339501493
124.439418237
123.506440468
122.539721497
121.53842271
120.501715618
119.428783999
118.318826379
117.171059144
115.984720256
114.759073478
113.493413135
112.187069623
110.839416059
109.449875457
108.017929608
106.543134509
105.025138157
103.463693593
101.858691563
100.210200364
98.5184934847
96.7841235112
95.008003203
93.1914790354
91.3365029979
89.4459461148
87.5236958845
85.5750156513
83.6069383032
81.6286770495
79.6519953684
77.6914308555
75.7638737381
73.8869670476
144.916837436
144.766896013
144.580194892
144.364134182
144.124468115
143.871681864
143.613074993
143.352363255
143.091020117
142.829119801
142.565921752
142.300302546
142.031021407
141.756856585
141.476663766
141.189391989
140.894078388
140.58983421
140.275828722
139.951274065
139.6154125
139.26750741
138.906819308
138.532635408
138.144228874
137.740871791
137.321830818
136.886364937
136.433724193
135.963149022
135.473870018
134.965107929
134.436073733
133.885968802
133.313985266
132.719306639
132.101108626
131.458559881
130.790822631
130.097053318
129.376403459
128.62802088
127.851051184
127.04463918
126.207930198
125.340071462
124.440213782
123.507513655
122.541135628
121.540254693
120.504058729
119.4317512
118.322554504
117.175714035
115.990502928
114.76622748
113.502233351
112.197912908
110.8527141
109.466151127
108.037816756
106.567395118
105.054686247
103.499626187
101.902317628
100.263065154
98.5824433385
96.8613480424
95.1010785383
93.3034448692
91.4708970894
89.606708921
87.7151907378
85.8019634349
83.8742737831
81.9413368289
80.0146644818
78.1083175425
76.2385917226
74.4226128672
144.990923705
144.835414742
144.629191113
144.39269293
144.137274884
143.874045285
143.609475045
143.346003873
143.083903829
142.822348036
142.560003065
142.29539265
142.027086937
141.753776974
141.474289812
141.187576715
140.892691328
140.588766373
140.27499265
139.950601495
139.614850447
139.267010697
138.906375183
138.532216631
138.143819861
137.740462564
137.321414874
136.885938256
136.433284558
135.962695593
135.473403065
134.964628647
134.435584101
133.885471522
133.313483826
132.718805495
132.100613448
131.458077743
130.790362121
130.096624696
129.376019054
128.62769566
127.85080344
127.044491295
126.207909413
125.340210819
124.440553394
123.508102312
122.542032678
121.541532176
120.505803893
119.434069671
118.325574221
117.179590018
115.995422976
114.772418842
113.509970734
112.207528175
110.864607733
109.480805482
108.055812001
106.589430453
105.081598746
103.532417594
101.942185962
100.311442015
98.6410127953
96.93207852
95.1862531914
93.4056837515
91.5931703582
89.7523144891
87.8876966121
86.0050967115
84.111755901
82.2166801217
80.3309921145
78.4683441233
76.6448863809
74.8782339735
145.114047794
144.938277412
144.69718604
144.429944037
144.152831375
143.876257509
143.604623074
143.338169476
143.075446918
142.814476623
142.55322453
142.289823987
142.022649528
141.750309919
141.471611426
141.185515093
140.891097363
140.587517347
140.273991098
139.94977202
139.614136213
139.266371684
138.905774712
138.53163474
138.14324105
137.739876027
137.320813435
136.885317357
136.432641559
135.962029327
135.472713528
134.963916742
134.434851471
133.884720525
133.312717619
132.718028083
132.099829752
131.457293765
130.789585268
130.095864128
129.375285938
128.627003709
127.850169522
127.043935909
126.207457288
125.339891874
124.440404013
123.508166831
122.542365012
121.542197669
120.506881612
119.435655306
118.327783638
117.182563575
115.999330566
114.777465961
113.516405783
112.215651113
110.874780344
109.493463423
108.071478641
106.608732834
105.105286611
103.56138457
101.977491919
100.354337827
98.6929673828
96.9948028292
95.2617174503
93.4961232368
91.7010740114
89.8803870863
88.0387810353
86.1820415809
84.3172254968
82.4529240131
80.5996578973
78.7705418852
76.9816996369
75.2519651234
145.317448311
145.085821683
144.784539514
144.473666664
144.168918714
143.876974264
143.598066436
143.328999639
143.066092524
142.806056559
142.546132337
142.284082911
142.018115752
141.746781324
141.468882008
141.183399521
140.889439693
140.586191802
140.272899259
139.948838701
139.61330501
139.265601581
138.905033328
138.530900832
138.14249949
137.739116373
137.320028716
136.88450311
136.431795174
135.961149573
135.471800195
134.962970365
134.433873207
133.883712243
133.311682122
132.716969362
132.098752999
131.456205035
130.788491119
130.094771669
129.374204078
128.625943827
127.849145622
127.04296528
126.206561341
125.339096776
124.439741672
123.5076761
122.542093036
121.542201568
120.507230513
119.436432937
118.329091535
117.184524821
116.002094109
114.781211305
113.521348828
112.222052244
110.88295321
109.503785073
108.084401297
106.624797739
105.125139734
103.585794193
102.007367206
100.390747702
98.7371587982
97.0482170099
95.3260006028
93.5731261515
91.792832677
89.9890740276
88.1666162491
86.3311445765
84.4893933741
82.6493314674
80.8205453786
79.0151604549
77.2487057546
75.5410622855
145.651504317
145.288332657
144.888590601
144.51972287
144.182212564
143.87420091
143.588915225
143.318279371
143.055968712
142.79735812
142.53903066
142.278455249
142.013731988
141.743393069
141.466261492
141.18135359
140.887811926
140.58485948
140.271768624
139.947839862
139.612384925
139.264721899
138.904165552
138.530025344
138.141602692
137.738188985
137.319064558
136.883498294
136.430747569
135.960058239
135.470664882
134.961791264
134.432650807
133.882447189
133.31037537
132.71562262
132.097369072
131.454788313
130.787047489
130.093308747
129.372730733
128.624470378
127.847684749
127.041532105
126.205173652
125.33777617
124.438514606
123.506574963
122.54115728
121.541478605
120.506777506
119.436319101
118.329400686
117.185358279
116.003574196
114.783486426
113.524599147
112.226494625
110.888848343
109.511445735
108.094201868
106.637185179
105.140645926
103.605049456
102.031114679
100.41985808
98.7726444306
97.0912434746
95.3778922992
93.6353617734
91.8670247697
90.0769228475
88.2698234645
86.4512645742
84.6275884812
82.8059736168
80.9946537075
79.2039077163
77.4468532332
75.7419029143
146.201278322
145.547337754
144.995159633
144.557678554
144.18617197
143.864169316
143.575154043
143.304994586
143.044599007
142.78818037
142.531854704
142.272940549
142.009525448
141.740181449
141.46378609
141.179409278
140.886240431
140.58354153
140.270615994
139.946787642
139.611382484
139.263733856
138.90316868
138.529003445
138.140544679
137.737087404
137.317914525
136.882296837
136.429493165
135.958750611
135.46930465
134.960379622
134.431189572
133.880938916
133.308822917
132.714027359
132.095733063
131.45311332
130.785335818
130.091564077
129.37095835
128.622677361
127.845879824
127.039726067
126.203380083
125.336011855
124.436800094
123.504935079
122.539621782
121.540083964
120.50556818
119.435349014
118.328735255
117.185076682
116.003771868
114.784277483
113.526121015
112.228913115
110.892362846
109.516295314
108.100672489
106.645618203
105.151447655
103.618701539
102.048184818
100.441010833
98.7986510771
97.1229891041
95.4163783524
93.6817036517
91.9224364562
90.1426831279
88.3472109145
86.5414402286
84.7313727902
82.9233637689
81.1239980075
79.3406810102
77.5803455611
75.8510246823
147.196516497
145.838700269
145.047953679
144.548111659
144.157273393
143.833521676
143.549116935
143.284621339
143.029233521
142.776806888
142.523514854
142.266843596
142.005054949
141.736870516
141.461287299
141.177467541
140.884670761
140.58221091
140.269427818
139.945659156
139.610268754
139.262610093
138.902014654
138.527805793
138.139294959
137.735780384
137.316547066
136.88086676
136.427996798
135.957184229
135.467666404
134.958668146
134.429403602
133.879077382
133.30688573
132.712018381
132.093655042
131.450969179
130.783128887
130.089297879
129.368637057
128.620306049
127.843464682
127.037274658
126.200901636
125.333517751
124.434304341
123.50245484
122.537178027
121.53770178
120.503277855
119.433187318
118.326746711
117.183315099
116.002302509
114.783180214
113.525491353
112.228865603
110.893034803
109.517851102
108.103308517
106.649568535
105.156990037
103.626163688
102.057951123
100.453529373
98.8144398594
97.1426393831
95.4405595516
93.7111722119
91.9580244376
90.1852841585
88.3977571425
86.6008644344
84.8005067367
83.0025501524
81.2125140674
79.4351192173
77.6652579676
75.8720030609
148.98962491
146.061526769
144.947999041
144.420929463
144.053832758
143.759265469
143.497818056
143.249467169
143.005131469
142.76024367
142.512107716
142.258968985
141.999594794
141.733048453
141.458561868
141.175460503
140.883117455
140.580924999
140.268280841
139.944595017
139.609239912
139.261564122
138.900920943
138.526646309
138.138058705
137.734460909
137.315140837
136.879372612
136.426419558
135.955529781
135.465936754
134.956864684
134.427527732
133.87713047
133.304868637
132.70992997
132.091494967
131.448737614
130.780826338
130.086925389
129.366196254
128.617799128
127.840894452
127.034644683
126.198216468
125.330783139
124.431527375
123.499644124
122.534343938
121.534857017
120.500437979
119.430371299
118.32397751
117.180620338
115.999715249
114.780739793
113.523245789
112.226872859
110.891364351
109.516585977
108.102547964
106.649431004
105.157616726
103.627722345
102.060640222
100.457582693
98.8201323476
97.1503004872
95.4505776737
93.7239737116
91.9740952355
90.205181823
88.4221284505
86.6304676696
84.8362870163
83.0461831639
81.266738831
79.5031929075
77.7363566752
75.8396957165
55.7649094769
52.219436248
49.8353866584
47.8891582124
46.2298593336
44.7848931679
43.5085155741
42.3700477967
41.3476268772
40.424917334
39.5892598842
38.8304860936
38.1401525547
37.5110585537
36.9369464839
36.4123148105
35.9322964115
35.4925721342
35.0893026658
34.7190696145
34.3788245437
34.0658451134
33.7776969627
33.5121993658
33.2673946551
33.0415222429
32.8329956132
32.6403813548
32.4623807792
32.2978148543
32.1456118964
32.0047962901
31.8744779501
31.7538432097
31.6421475223
31.5387085099
31.4428994711
31.3541443018
31.2719138401
31.1957216711
31.1251192985
31.0596919131
30.999057711
30.9428693836
30.8907879238
30.8424905912
30.7976872419
30.7561101583
30.7175108065
30.6816595213
30.6483496825
30.6173880067
30.5885832277
30.5617609505
30.5367613692
30.5134368167
30.4916517983
30.4712803791
30.45220581
30.4343194241
30.4175209098
30.401717048
30.3868226431
30.3727593276
30.3594542045
30.3468389657
30.3348511984
30.3234335184
30.3125328461
30.3021000612
30.2920902505
30.2824616403
30.2731760264
30.2641984096
30.2554961511
30.247037811
30.2387946829
30.23074163
30.2228555308
30.2151131894
30.207492786
30.199975021
30.1925421856
30.1851763854
30.1778594162
30.170573777
30.163304445
30.1560370302
30.1487550959
30.1414403598
30.1340762577
30.12664723
30.1191359497
30.1115222467
30.103786133
30.0959088034
30.087867947
30.0796379991
30.0711918736
30.0625014391
30.0535358016
30.0442595556
30.0346334326
30.0246149507
30.0141579065
30.003209807
29.9917111061
29.9795959577
29.9667923352
29.9532195352
29.9387853641
29.9233867269
29.9069094837
29.8892241392
29.8701846674
29.8496266723
29.827364789
29.8031880915
29.7768566285
29.7480968421
29.716595858
29.6819956937
29.6438820674
29.6017735798
29.5551086429
29.5032262016
29.4453431882
29.3805224253
29.3076310901
29.2252834033
29.1317656348
29.0249245998
28.9020193597
28.7595079737
28.5927381487
28.3955136901
28.1594962943
27.8734377569
27.5223742155
27.0873169633
26.5466313263
25.8803886364
25.0791202954
24.1478776391
23.1340421684
22.0970183361
21.1203599295
20.277594073
19.6161791661
19.1342014827
18.7662360539
18.3878825653
17.8372762603
16.9492777251
15.5904315908
13.7019304213
11.3233585173
8.42461684456
4.75106542968
0.970883842131
58.9516185945
54.9006007957
52.1966530158
50.0559849465
48.2669211544
46.7287828267
45.3816420107
44.1873500999
43.1196045067
42.1592354213
41.2916860932
40.5054662795
39.7911821907
39.1409341322
38.5479408159
38.0063038896
37.5108520101
37.057031559
36.6408197907
36.2586541299
35.9073704177
35.5841535676
35.2864928974
35.0121447696
34.7590976062
34.5255453587
34.3098613865
34.1105777491
33.9263643395
33.7560150209
33.5984331497
33.4526210187
33.3176668356
33.1927373128
33.0770678943
32.9699574978
32.8707595562
32.7788790778
32.6937667323
32.6149159809
32.541856567
32.4741518165
32.4113948329
32.3532100685
32.2992539126
32.2492121404
32.2027901542
32.1597139603
32.1197271604
32.0825923383
32.048086691
32.0160052396
31.9861596045
31.9583753972
31.9324873875
31.9083448393
31.885806784
31.8647435753
31.8450327425
31.8265633416
31.8092290682
31.7929346727
31.7775904792
31.7631161604
31.7494342766
31.7364757416
31.7241739714
31.7124715344
31.7013112571
31.6906430318
31.6804194647
31.6705982709
31.6611376091
31.6520041566
31.6431619441
31.6345793063
31.6262254574
31.6180759629
31.6101049187
31.6022906638
31.5946088116
31.5870405965
31.5795684434
31.5721728748
31.5648356856
31.5575411505
31.5502699537
31.54301422
31.5357507542
31.5284662619
31.5211429455
31.5137659074
31.5063197771
31.4987830589
31.4911384746
31.4833668392
31.4754504527
31.4673597375
31.4590748954
31.4505671385
31.44180742
31.432764264
31.4233997182
31.4136763252
31.4035484789
31.3929697939
31.381884903
31.3702320973
31.3579430343
31.344948611
31.3311556489
31.3164738162
31.3007943533
31.2839968081
31.2659464082
31.2464886084
31.2254493628
31.2026335867
31.1778115315
31.1507318396
31.1210944239
31.0885619287
31.052747369
31.01318709
30.9693499226
30.9206071992
30.8662060828
30.8052533989
30.7366577515
30.6590855036
30.57088007
30.4699618883
30.3536749451
30.2185765204
30.060136766
29.8723196563
29.646980356
29.3730922896
29.0359177962
28.6166667704
28.0940184338
27.4480121903
26.6680730482
25.7615852725
24.7685227567
23.7484514358
22.7768430039
21.9213511895
21.2217317745
20.6701552931
20.1993827064
19.6876014021
18.9803682037
17.923614645
16.3963559194
14.3487896697
11.8217284884
8.78838570714
5.00490638104
1.0899587902
61.1634788402
57.2306132566
54.3715245323
52.099292109
50.2099985686
48.5949526544
47.1874654615
45.9446747503
44.8370912534
43.8433610815
42.9473937647
42.1365959876
41.400764654
40.7313971214
40.1212581479
39.5641051884
39.0545042996
38.5876997606
38.1595116458
37.7662542346
37.4046662011
37.0718546254
36.7652451983
36.4825414435
36.2216873583
35.9808384127
35.7583339068
35.5526752686
35.3625051672
35.1865925137
35.0238171086
34.8731586185
34.7336836775
34.6045384363
34.484938545
34.374163982
34.2715508828
34.1764885099
34.0884131875
34.0068048595
33.9311812028
33.8610959947
33.7961356687
33.7359191047
33.6800915231
33.6283237097
33.5803091312
33.5357645598
33.4944256758
33.4560482936
33.4204045779
33.3872839172
33.3564878785
33.3278336221
33.3011494583
33.2762788533
33.2530754823
33.2314049309
33.211139837
33.192164777
33.1743696228
33.1576559
33.1419306463
33.1271095357
33.1131118727
33.0998667689
33.0873056065
33.0753685387
33.063996677
33.053137479
33.0427410038
33.0327639367
33.0231639931
33.013906066
33.0049525444
32.9962713669
32.9878313567
32.9796067895
32.9715709861
32.9637018647
32.9559749134
32.9483706829
32.9408715969
32.933457814
32.9261107563
32.918816562
32.9115548068
32.9043162759
32.8970791816
32.8898307542
32.8825555223
32.8752380099
32.8678628149
32.8604103567
32.852864432
32.8452061218
32.8374198163
32.8294783122
32.8213624694
32.8130462829
32.8045027043
32.7957027964
32.7866118994
32.7771959006
32.767412543
32.7572186231
32.7465635553
32.7353927113
32.723641925
32.7112472673
32.6981238632
32.68418806
32.6693401781
32.6534686637
32.63644912
32.6181398338
32.5983783411
32.5769836051
32.5537424486
32.5284209456
32.5007396425
32.4703811249
32.4369833876
32.4001126133
32.3592663035
32.313851616
32.2631584168
32.2063378007
32.1423533013
32.0699365153
31.9875076776
31.8930795185
31.7841111617
31.6573034086
31.5083114007
31.3313376294
31.1185476934
30.8592926231
30.5392607256
30.1402624863
29.6416202503
29.0234461618
28.2748989842
27.4033656986
26.4440103784
25.4531584851
24.4989212757
23.6411758335
22.9115189453
22.2959284012
21.7250720079
21.0799597643
20.2139707578
18.9845366939
17.2831606781
15.0683195151
12.3813061501
9.19877750861
5.28727450422
1.21659095487
62.9705514004
59.2481979259
56.352345322
54.0086199041
52.0507312426
50.377190245
48.9212669052
47.6383126352
46.4970738223
45.4747687012
44.5542035678
43.7219440198
42.9671473141
42.280824113