/*--------------------------------*- C++ -*----------------------------------*\
| =========                 |                                                 |
| \\      /  F ield         | OpenFOAM: The Open Source CFD Toolbox           |
|  \\    /   O peration     | Version:  2106                                  |
|   \\  /    A nd           | Website:  www.openfoam.com                      |
|    \\/     M anipulation  |                                                 |
\*---------------------------------------------------------------------------*/
FoamFile
{
    version     2.0;
    format      ascii;
    arch        "LSB;label=32;scalar=64";
    class       surfaceScalarField;
    location    "0.45";
    object      phi;
}
// * * * * * * * * * * * * * * * * * * * * * * * * * * * * * * * * * * * * * //

dimensions      [0 3 -1 0 0 0 0];

oriented        oriented;

internalField   nonuniform List<scalar> 
18840
(
3.37543051403e-05
1.62456948407e-05
2.25359618352e-05
1.12183417384e-05
1.63023783898e-05
6.23358472987e-06
1.28098254809e-05
3.49255299022e-06
1.08065803244e-05
2.0032450938e-06
9.60476928599e-06
1.20181084021e-06
8.85167870398e-06
7.53090492688e-07
8.36503078726e-06
4.86647801084e-07
8.04518621945e-06
3.19844586301e-07
7.83374218661e-06
2.11444117101e-07
7.69428220618e-06
1.39459921058e-07
7.60308066405e-06
9.12016573218e-08
7.54426578136e-06
5.88148968986e-08
7.50707763783e-06
3.71882571422e-08
7.48418968654e-06
2.28879363103e-08
7.47062407875e-06
1.35656314156e-08
7.4630216464e-06
7.60259425315e-09
7.45913887685e-06
3.88264165029e-09
7.45749894268e-06
1.63969448543e-09
7.45714600103e-06
3.53101747624e-10
7.45748343547e-06
-3.37429391951e-10
7.45813443434e-06
-6.51094739991e-10
7.45888654482e-06
-7.51958978188e-10
7.45962032108e-06
-7.33692344579e-10
7.46027681343e-06
-6.56525486329e-10
7.46083325603e-06
-5.5654122882e-10
7.46128741077e-06
-4.54195260463e-10
7.46164769967e-06
-3.60216333413e-10
7.46192687226e-06
-2.79179488864e-10
7.46213904977e-06
-2.12170603844e-10
7.46229766191e-06
-1.58583322851e-10
7.46241427598e-06
-1.16737049775e-10
7.46249882644e-06
-8.46364238207e-11
7.46255936142e-06
-6.05081194078e-11
7.46260203949e-06
-4.26789149538e-11
7.46263171599e-06
-2.96659006295e-11
7.46265210516e-06
-2.03190677203e-11
7.46266590378e-06
-1.3738287843e-11
7.46267503524e-06
-9.16776650218e-12
7.46268097033e-06
-5.95837225549e-12
7.4626848013e-06
-3.74977660712e-12
7.46268738276e-06
-2.42313972075e-12
7.46268889122e-06
-1.5396151993e-12
7.46268973114e-06
-9.17044971109e-13
7.46269030105e-06
-5.63292978996e-13
7.46269070274e-06
-3.79828613603e-13
7.46269094419e-06
-2.56418783011e-13
7.46269115202e-06
-1.6073663621e-13
7.46269137052e-06
-1.67443291887e-13
7.46269157839e-06
-2.4808337554e-13
7.46269177638e-06
-2.95376291805e-13
7.46269200755e-06
-2.84471460384e-13
7.46269228916e-06
-2.87326671355e-13
7.46269260839e-06
-3.28913136125e-13
7.46269295808e-06
-3.78530258194e-13
7.46269333794e-06
-4.42273514469e-13
7.46269375702e-06
-4.92025947198e-13
7.46269425551e-06
-5.11197670527e-13
7.46269481362e-06
-5.20591706907e-13
7.46269536939e-06
-5.14562410356e-13
7.46269593608e-06
-5.15903029252e-13
7.46269654302e-06
-5.61281711924e-13
7.46269717992e-06
-6.31981691145e-13
7.46269782192e-06
-6.68489151929e-13
7.46269850168e-06
-6.73150078741e-13
7.46269923899e-06
-7.0748883502e-13
7.46270000857e-06
-7.79186719889e-13
7.46270079821e-06
-8.38806706018e-13
7.46270162352e-06
-8.68911025328e-13
7.46270248968e-06
-8.9452194448e-13
7.46270339516e-06
-9.30665186214e-13
7.46270434315e-06
-9.78189260069e-13
7.46270533221e-06
-1.03665566848e-12
7.46270636675e-06
-1.10218056459e-12
7.46270744414e-06
-1.14830885298e-12
7.46270859172e-06
-1.1553975167e-12
7.46270980678e-06
-1.15439147893e-12
7.46271102049e-06
-1.17932213118e-12
7.46271224083e-06
-1.23835507381e-12
7.46271351469e-06
-1.30663846387e-12
7.46271485084e-06
-1.3509297784e-12
7.46271624164e-06
-1.38545815329e-12
7.46271765627e-06
-1.42532676732e-12
7.46271910885e-06
-1.47303625592e-12
7.46272063243e-06
-1.54722273678e-12
7.4627222099e-06
-1.61791784234e-12
7.46272385175e-06
-1.6565598757e-12
7.4627255558e-06
-1.70025718847e-12
7.46272730438e-06
-1.76335969729e-12
7.46272911432e-06
-1.82375516921e-12
7.46273094834e-06
-1.86433108565e-12
7.46273284617e-06
-1.93084514239e-12
7.46273486744e-06
-2.05935774073e-12
7.46273695398e-06
-2.13992324389e-12
7.46273915854e-06
-2.18114521408e-12
7.46274147186e-06
-2.31229903096e-12
7.46274384913e-06
-2.46847126265e-12
7.46274639891e-06
-2.58463318678e-12
7.46274912943e-06
-2.69743668935e-12
7.46275205394e-06
-2.8474180693e-12
7.46275519971e-06
-3.09980144754e-12
7.46275859267e-06
-3.40134149379e-12
7.46276242541e-06
-3.74861195163e-12
7.4627667661e-06
-4.16397549871e-12
7.46277160306e-06
-4.64597304081e-12
7.46277706637e-06
-5.27838793197e-12
7.4627833564e-06
-6.14697987769e-12
7.46279056411e-06
-7.17146993592e-12
7.46279899799e-06
-8.39438695782e-12
7.46280898825e-06
-9.9290599902e-12
7.46282090286e-06
-1.18032529383e-11
7.46283517247e-06
-1.41462855551e-11
7.46285230324e-06
-1.71052645108e-11
7.46287308294e-06
-2.0769950091e-11
7.4628984231e-06
-2.53086623813e-11
7.46292941418e-06
-3.09394937742e-11
7.46296734847e-06
-3.78239894301e-11
7.46301388162e-06
-4.62436620998e-11
7.46307115951e-06
-5.68511132989e-11
7.46314159141e-06
-7.01730730495e-11
7.46322822739e-06
-8.64902706998e-11
7.46333511786e-06
-1.06575575985e-10
7.46346714572e-06
-1.31776478348e-10
7.46363089965e-06
-1.63639276173e-10
7.46383709452e-06
-2.06191684775e-10
7.46408931799e-06
-2.51861517251e-10
7.46439947137e-06
-3.10318248749e-10
7.46478323362e-06
-3.83908944567e-10
7.46525845238e-06
-4.75234568505e-10
7.46584692378e-06
-5.88508293824e-10
7.46657568594e-06
-7.28856420731e-10
7.46747838007e-06
-9.02621778003e-10
7.46859655208e-06
-1.11808351832e-09
7.46998164863e-06
-1.38519514019e-09
7.47169772331e-06
-1.71618271928e-09
7.47382450882e-06
-2.12668280758e-09
7.47646068986e-06
-2.63614815881e-09
7.47972891108e-06
-3.26844181821e-09
7.48378231258e-06
-4.05363599355e-09
7.48881160794e-06
-5.02955137924e-09
7.4950548771e-06
-6.24352597476e-09
7.5028102282e-06
-7.75550482812e-09
7.51245179936e-06
-9.64161630933e-09
7.52445083997e-06
-1.19989081249e-08
7.53940260517e-06
-1.49517192445e-08
7.55806367747e-06
-1.86609990478e-08
7.5814018989e-06
-2.33379000743e-08
7.61066377088e-06
-2.92617887487e-08
7.64747201537e-06
-3.68081905209e-08
7.69396565865e-06
-4.64934091315e-08
7.75301362212e-06
-5.90478928914e-08
7.82856823057e-06
-7.55549876183e-08
7.92632460011e-06
-9.77570251901e-08
8.05517143579e-06
-1.28847052607e-07
8.23093287234e-06
-1.75761608522e-07
8.4869719692e-06
-2.5603944125e-07
8.90562099799e-06
-4.18649545914e-07
9.71791360596e-06
-8.122930435e-07
1.16327108841e-05
-1.91479757568e-06
-5.17978030154e-06
1.68124912996e-05
5.01388829928e-05
1.610681372e-05
4.41591290059e-05
1.71980939072e-05
3.775987396e-05
1.26328401194e-05
3.26495147356e-05
8.60291224386e-06
2.8946582396e-05
5.70617752629e-06
2.63676032629e-05
3.78078979421e-06
2.45938853057e-05
2.52680834398e-06
2.33783983242e-05
1.70213463362e-06
2.25473237908e-05
1.15091904462e-06
2.19811569773e-05
7.77611143311e-07
2.15978045673e-05
5.22812316044e-07
2.13405417694e-05
3.48464663623e-07
2.11699443244e-05
2.29412407262e-07
2.10585367789e-05
1.48595992541e-07
2.09871857984e-05
9.42389225686e-08
2.09426221077e-05
5.81290220763e-08
2.09157076203e-05
3.45171358065e-08
2.09002079764e-05
1.93825064795e-08
2.08919202707e-05
9.92712786624e-09
2.08880551617e-05
4.2182565999e-09
2.08867856549e-05
9.32282740843e-10
2.08869505712e-05
-8.16159363981e-10
2.0887828912e-05
-1.630353689e-09
2.08889874694e-05
-1.89221387422e-09
2.08901809185e-05
-1.84990945796e-09
2.08912814745e-05
-1.65709703398e-09
2.08922328774e-05
-1.4056984022e-09
2.08930206111e-05
-1.14790006911e-09
2.08936522187e-05
-9.10792086266e-10
2.08941460288e-05
-7.06067849393e-10
2.08945243362e-05
-5.367899985e-10
2.08948088912e-05
-4.0124493596e-10
2.08950194781e-05
-2.95284237067e-10
2.08951731452e-05
-2.14153495099e-10
2.0895283667e-05
-1.53204793842e-10
2.08953620494e-05
-1.08113611535e-10
2.08954169239e-05
-7.52043163089e-11
2.08954548435e-05
-5.15828224318e-11
2.08954806484e-05
-3.48983593332e-11
2.08954978455e-05
-2.32285165936e-11
2.08955090945e-05
-1.51268852666e-11
2.08955161953e-05
-9.64962221079e-12
2.0895520634e-05
-6.01982967792e-12
2.08955232862e-05
-3.66857584182e-12
2.08955248807e-05
-2.14000414979e-12
2.0895525778e-05
-1.22656832571e-12
2.0895526169e-05
-7.23093728066e-13
2.08955263695e-05
-4.99224581569e-13
2.089552651e-05
-3.60552688798e-13
2.08955266457e-05
-3.18216266044e-13
2.08955267632e-05
-3.57627509993e-13
2.08955268701e-05
-4.22100805376e-13
2.08955269967e-05
-4.89610982706e-13
2.08955271509e-05
-5.57902940735e-13
2.08955273385e-05
-6.40070331902e-13
2.08955275874e-05
-7.33782095092e-13
2.08955278803e-05
-8.00214193922e-13
2.08955282291e-05
-8.25160127448e-13
2.08955286373e-05
-8.6019932304e-13
2.08955290403e-05
-9.1946804783e-13
2.0895529443e-05
-9.66907044766e-13
2.08955298901e-05
-1.01129033519e-12
2.08955303935e-05
-1.09266276695e-12
2.08955309033e-05
-1.19933617466e-12
2.08955314146e-05
-1.28457918019e-12
2.08955319631e-05
-1.34961875306e-12
2.08955325552e-05
-1.42431082893e-12
2.08955331752e-05
-1.49884107584e-12
2.08955338262e-05
-1.56302120286e-12
2.08955345022e-05
-1.63213921966e-12
2.08955351864e-05
-1.7085487107e-12
2.0895535889e-05
-1.78072399975e-12
2.08955366356e-05
-1.84835312273e-12
2.08955374583e-05
-1.92616745157e-12
2.08955383398e-05
-2.0008412167e-12
2.08955392577e-05
-2.03864178544e-12
2.08955402093e-05
-2.07398190765e-12
2.08955411578e-05
-2.1546571433e-12
2.08955421296e-05
-2.26003003702e-12
2.0895543165e-05
-2.36171118561e-12
2.08955442453e-05
-2.4566228799e-12
2.08955453694e-05
-2.55646825007e-12
2.0895546522e-05
-2.66131514704e-12
2.0895547711e-05
-2.75624713174e-12
2.08955489921e-05
-2.85744891336e-12
2.08955503507e-05
-2.97704735513e-12
2.08955517691e-05
-3.10093655804e-12
2.08955532597e-05
-3.23037860552e-12
2.08955548242e-05
-3.35629122244e-12
2.08955564898e-05
-3.49368846812e-12
2.08955582189e-05
-3.66676948384e-12
2.08955600655e-05
-3.84695951922e-12
2.08955621496e-05
-4.05916972603e-12
2.08955643566e-05
-4.31590200887e-12
2.0895566707e-05
-4.59241009003e-12
2.08955693299e-05
-4.94372205202e-12
2.08955722374e-05
-5.3659202959e-12
2.08955755416e-05
-5.81946505662e-12
2.08955792697e-05
-6.32215079696e-12
2.08955835018e-05
-6.93575548495e-12
2.08955883388e-05
-7.77246210709e-12
2.08955938692e-05
-8.83307836132e-12
2.08956004102e-05
-1.00768818914e-11
2.08956081844e-05
-1.16296338583e-11
2.08956172856e-05
-1.35852778204e-11
2.0895628047e-05
-1.59741775744e-11
2.08956409995e-05
-1.89090286305e-11
2.0895656487e-05
-2.25260731432e-11
2.08956750623e-05
-2.6874711919e-11
2.08956972025e-05
-3.19310152559e-11
2.08957237082e-05
-3.81403885598e-11
2.08957571568e-05
-4.74464202939e-11
2.08957983846e-05
-5.82543709544e-11
2.08958491875e-05
-7.13888926246e-11
2.08959118396e-05
-8.76184847624e-11
2.08959891435e-05
-1.07782883685e-10
2.08960845516e-05
-1.32815718278e-10
2.08962022298e-05
-1.63761564697e-10
2.08963476637e-05
-2.02062292334e-10
2.08965275688e-05
-2.49610723289e-10
2.08967498295e-05
-3.08473069276e-10
2.08970244246e-05
-3.81256535391e-10
2.08973638648e-05
-4.71206809716e-10
2.08977828125e-05
-5.82591805802e-10
2.08982973762e-05
-7.20833980612e-10
2.08989385661e-05
-8.9302202247e-10
2.08997358028e-05
-1.10689298111e-09
2.09007240934e-05
-1.37217704587e-09
2.09019492161e-05
-1.70043231245e-09
2.09034674317e-05
-2.10689593058e-09
2.09053485744e-05
-2.61020234938e-09
2.09076792164e-05
-3.23358777136e-09
2.09105668514e-05
-4.00599098642e-09
2.09141447628e-05
-4.96331109235e-09
2.09185781139e-05
-6.14995708174e-09
2.09240723446e-05
-7.62125374103e-09
2.09308825828e-05
-9.4463800598e-09
2.0939325678e-05
-1.17114943395e-08
2.09497965222e-05
-1.45242768299e-08
2.09627873237e-05
-1.80199185947e-08
2.09789124415e-05
-2.23683138304e-08
2.099894074e-05
-2.77838296571e-08
2.10238368969e-05
-3.45381999207e-08
2.10548157711e-05
-4.29780105587e-08
2.10934124544e-05
-5.35485944711e-08
2.11415773635e-05
-6.68265814309e-08
2.12018067339e-05
-8.35676930145e-08
2.12773211344e-05
-1.04776491327e-07
2.13723240172e-05
-1.3181154519e-07
2.1492386742e-05
-1.66556271276e-07
2.16450498755e-05
-2.11710467957e-07
2.18408244831e-05
-2.7132875729e-07
2.20949764937e-05
-3.5190879564e-07
2.24309175649e-05
-4.64787688582e-07
2.28869706278e-05
-6.31814123499e-07
2.35301462639e-05
-8.99214733687e-07
2.44822536256e-05
-1.37075672494e-06
2.59557553959e-05
-2.28579408997e-06
2.82410102555e-05
-4.20005184905e-06
-8.22622011464e-06
3.12874500809e-05
5.35844276682e-05
1.25223873953e-05
5.29166007838e-05
1.7865919881e-05
4.96393016915e-05
1.59101393362e-05
4.58382172295e-05
1.24039965545e-05
4.24428748628e-05
9.10151991007e-06
3.97331594203e-05
6.49050508084e-06
3.7691245435e-05
4.56872232881e-06
3.62011671185e-05
3.19221295156e-06
3.51355936352e-05
2.21649240529e-06
3.43848447096e-05
1.52836022497e-06
3.38626591331e-05
1.04499788522e-06
3.35040069291e-05
7.07117006176e-07
3.32609628858e-05
4.7245641731e-07
3.3098720943e-05
3.10838072834e-07
3.29922910997e-05
2.00668933148e-07
3.29239197722e-05
1.26500084327e-07
3.28811297597e-05
7.7306968877e-08
3.28552513753e-05
4.52611490536e-08
3.28403347539e-05
2.4843629008e-08
3.28323547607e-05
1.21981547906e-08
3.28286290434e-05
4.65821742262e-09
3.28274051135e-05
4.0779405577e-10
3.28275645528e-05
-1.78983325623e-09
3.28284106204e-05
-2.73833003921e-09
3.282952674e-05
-2.96602402389e-09
3.28306764451e-05
-2.80673726211e-09
3.28317365185e-05
-2.46582844106e-09
3.28326530198e-05
-2.06438227882e-09
3.28334117373e-05
-1.66949432358e-09
3.28340199527e-05
-1.31443859259e-09
3.28344956034e-05
-1.01245467618e-09
3.28348599138e-05
-7.65466930029e-10
3.28351338726e-05
-5.69239460447e-10
3.28353366732e-05
-4.16931058831e-10
3.28354845954e-05
-3.01082784662e-10
3.28355909418e-05
-2.14458549082e-10
3.28356663098e-05
-1.50642123838e-10
3.2835719021e-05
-1.04289932412e-10
3.28357553807e-05
-7.11493374727e-11
3.28357800088e-05
-4.78132437395e-11
3.28357963737e-05
-3.15570294538e-11
3.28358070756e-05
-2.04052826591e-11
3.28358139818e-05
-1.29135287938e-11
3.28358182718e-05
-7.97109559777e-12
3.2835820884e-05
-4.76518645379e-12
3.2835822524e-05
-2.78133835762e-12
3.28358234897e-05
-1.63941930232e-12
3.28358239177e-05
-9.83142681068e-13
3.28358240667e-05
-5.8497841092e-13
3.28358241244e-05
-3.74965918816e-13
3.28358241449e-05
-3.64914295962e-13
3.28358241277e-05
-4.314777965e-13
3.28358241236e-05
-5.35295971339e-13
3.28358241412e-05
-6.47101258808e-13
3.28358241837e-05
-7.53363008581e-13
3.28358243053e-05
-8.61896553518e-13
3.28358244971e-05
-9.49391635368e-13
3.28358247253e-05
-1.00083395316e-12
3.2835824994e-05
-1.06633562142e-12
3.28358252576e-05
-1.16607787967e-12
3.28358255074e-05
-1.26633045814e-12
3.28358257828e-05
-1.3401354858e-12
3.28358261162e-05
-1.41504737915e-12
3.28358264627e-05
-1.52534345592e-12
3.28358267898e-05
-1.64589827682e-12
3.28358271332e-05
-1.7384108712e-12
3.28358275263e-05
-1.82620172198e-12
3.28358279451e-05
-1.91311622965e-12
3.28358283744e-05
-1.99964440337e-12
3.28358288251e-05
-2.10364109781e-12
3.28358292924e-05
-2.21756445016e-12
3.28358297687e-05
-2.31904632551e-12
3.28358302612e-05
-2.40191501656e-12
3.28358308198e-05
-2.47603043046e-12
3.28358314454e-05
-2.55546121972e-12
3.28358320802e-05
-2.63310209186e-12
3.28358327152e-05
-2.72519583132e-12
3.28358333517e-05
-2.85401287121e-12
3.28358340183e-05
-2.98939264539e-12
3.28358347399e-05
-3.11463577193e-12
3.28358354908e-05
-3.25017560264e-12
3.2835836281e-05
-3.40686925442e-12
3.28358371068e-05
-3.5732036648e-12
3.28358379626e-05
-3.72557362155e-12
3.28358389102e-05
-3.86764069631e-12
3.28358399388e-05
-4.01806973093e-12
3.28358410152e-05
-4.18179588225e-12
3.28358421704e-05
-4.37126040575e-12
3.28358434034e-05
-4.57705379381e-12
3.28358447396e-05
-4.81872788445e-12
3.28358461738e-05
-5.14897077281e-12
3.28358477407e-05
-5.49861187695e-12
3.28358495825e-05
-5.8484131508e-12
3.28358516067e-05
-6.30158366357e-12
3.28358537977e-05
-6.85932171851e-12
3.28358563511e-05
-7.51456755439e-12
3.28358593065e-05
-8.27405120432e-12
3.28358627315e-05
-9.13410237961e-12
3.28358666163e-05
-1.012472867e-11
3.28358709309e-05
-1.1231277003e-11
3.2835876282e-05
-1.30401244227e-11
3.28358827472e-05
-1.52047312225e-11
3.28358905643e-05
-1.77482789126e-11
3.28359000686e-05
-2.09235434065e-11
3.28359115433e-05
-2.49366804035e-11
3.28359254511e-05
-2.9849899508e-11
3.28359425148e-05
-3.58431805885e-11
3.28359634061e-05
-4.32643155018e-11
3.28359891671e-05
-5.24661594639e-11
3.28360212519e-05
-6.38502150722e-11
3.28360610945e-05
-7.79262979984e-11
3.28361091491e-05
-9.53933139271e-11
3.28361680743e-05
-1.17017052614e-10
3.28362406299e-05
-1.43753659048e-10
3.28363300949e-05
-1.76849488152e-10
3.28364405559e-05
-2.17850837394e-10
3.28365770087e-05
-2.68735558331e-10
3.28367453411e-05
-3.31830042071e-10
3.2836953304e-05
-4.09863970064e-10
3.28372105888e-05
-5.06435927093e-10
3.28375286044e-05
-6.2614315589e-10
3.28379218226e-05
-7.74285396764e-10
3.28384083102e-05
-9.57587056155e-10
3.28390105552e-05
-1.18471952652e-09
3.28397559632e-05
-1.46630790218e-09
3.28406780608e-05
-1.81530271514e-09
3.28418194651e-05
-2.24825166506e-09
3.2843232346e-05
-2.78507155017e-09
3.28449818029e-05
-3.45002734701e-09
3.28471484925e-05
-4.27349325806e-09
3.28498319346e-05
-5.2934972065e-09
3.28531554229e-05
-6.5571581345e-09
3.28572721214e-05
-8.12280340711e-09
3.28623719851e-05
-1.00630966953e-08
3.28686902547e-05
-1.24682804656e-08
3.28765191784e-05
-1.54503957048e-08
3.28862218958e-05
-1.91492276948e-08
3.28982493292e-05
-2.37391468331e-08
3.29131627483e-05
-2.94379014414e-08
3.29316613992e-05
-3.65185568854e-08
3.29546173476e-05
-4.5324214862e-08
3.29831206804e-05
-5.62871896089e-08
3.30185370605e-05
-6.99547901093e-08
3.30625829998e-05
-8.70239454724e-08
3.31174233631e-05
-1.0838860262e-07
3.31858010572e-05
-1.35204303716e-07
3.32712142975e-05
-1.68981008127e-07
3.33781582638e-05
-2.11720261608e-07
3.35124673207e-05
-2.66120730888e-07
3.36818157693e-05
-3.35905349752e-07
3.389647389e-05
-4.26369113732e-07
3.41704938596e-05
-5.45348901088e-07
3.45236273339e-05
-7.05042556383e-07
3.49844531573e-05
-9.25613613894e-07
3.55952524246e-05
-1.24261372084e-06
3.64184687119e-05
-1.72243102181e-06
3.75406503412e-05
-2.4929384429e-06
3.90526617772e-05
-3.79780515676e-06
4.09287542009e-05
-6.07614350528e-06
-9.95231582162e-06
4.26548513867e-05
5.35705206525e-05
8.95186736098e-06
5.55863056905e-05
1.58501344148e-05
5.52410591038e-05
1.62553861113e-05
5.35976159585e-05
1.40474395191e-05
5.15429061336e-05
1.1156229748e-05
4.95819405381e-05
8.45147050633e-06
4.79262512951e-05
6.22441155584e-06
4.6620040019e-05
4.49842430735e-06
4.56322340325e-05
3.20429827165e-06
4.49066879786e-05
2.25390637629e-06
4.43854426196e-05
1.566243275e-06
4.4017833474e-05
1.07472634458e-06
4.37629129461e-05
7.27376850587e-07
4.35890454133e-05
4.84705546819e-07
4.34725023523e-05
3.17212224064e-07
4.33958692763e-05
2.0313311029e-07
4.33465910432e-05
1.26584931925e-07
4.3315757069e-05
7.60952751314e-08
4.32971356109e-05
4.34650822027e-08
4.32864339004e-05
2.28996930744e-08
4.32807407014e-05
1.03515207871e-08
4.32781180084e-05
3.03056810028e-09
4.3277291348e-05
-9.63140349591e-10
4.32774558548e-05
-2.90284580879e-09
4.32781072437e-05
-3.6174307682e-09
4.32789453013e-05
-3.64474532236e-09
4.3279800215e-05
-3.32081649517e-09
4.32805845244e-05
-2.84871188605e-09
4.32812604125e-05
-2.34527044364e-09
4.32818184854e-05
-1.87255246857e-09
4.32822651411e-05
-1.45913534969e-09
4.32826139393e-05
-1.11417587096e-09
4.32828806464e-05
-8.3595087961e-10
4.32830809955e-05
-6.17344913372e-10
4.32832291632e-05
-4.49255627389e-10
4.32833371102e-05
-3.22396310896e-10
4.32834145938e-05
-2.28187480509e-10
4.32834694337e-05
-1.59221049013e-10
4.32835077493e-05
-1.09492290299e-10
4.32835341254e-05
-7.41728529086e-11
4.32835519363e-05
-4.94201584908e-11
4.32835637535e-05
-3.22917192872e-11
4.32835715085e-05
-2.06354159747e-11
4.32835764212e-05
-1.2891052424e-11
4.32835794174e-05
-7.82221526297e-12
4.32835812327e-05
-4.57470352994e-12
4.32835822744e-05
-2.60327667923e-12
4.32835828184e-05
-1.47555895206e-12
4.32835830825e-05
-8.45855308438e-13
4.32835832087e-05
-5.21874712017e-13
4.32835832312e-05
-4.24048175536e-13
4.32835831836e-05
-4.51231976477e-13
4.32835831238e-05
-5.47958367377e-13
4.32835830635e-05
-6.65703805977e-13
4.32835829947e-05
-7.78243446622e-13
4.32835829621e-05
-8.72911656966e-13
4.32835829705e-05
-9.45868846606e-13
4.32835829751e-05
-1.00684382796e-12
4.32835829822e-05
-1.07188824424e-12
4.32835830072e-05
-1.17412033396e-12
4.32835830351e-05
-1.29979189848e-12
4.32835830645e-05
-1.39921803658e-12
4.32835831257e-05
-1.47928338427e-12
4.32835832149e-05
-1.58657063241e-12
4.32835832998e-05
-1.71237703431e-12
4.32835833827e-05
-1.82197657794e-12
4.32835834744e-05
-1.92328545738e-12
4.32835835653e-05
-2.02934956867e-12
4.32835836584e-05
-2.1344954887e-12
4.32835837647e-05
-2.23425410009e-12
4.32835838771e-05
-2.330545819e-12
4.32835839876e-05
-2.43184045653e-12
4.32835840925e-05
-2.53365224668e-12
4.32835842394e-05
-2.62359144432e-12
4.32835844437e-05
-2.71785416874e-12
4.32835846336e-05
-2.82881580204e-12
4.32835847946e-05
-2.96025631157e-12
4.32835849608e-05
-3.11768052813e-12
4.32835851609e-05
-3.27944482999e-12
4.32835854022e-05
-3.43195781063e-12
4.32835856531e-05
-3.58570432252e-12
4.32835859276e-05
-3.74883885349e-12
4.32835862366e-05
-3.92700332907e-12
4.3283586566e-05
-4.11000248677e-12
4.32835869635e-05
-4.28560592452e-12
4.32835874299e-05
-4.46309612699e-12
4.32835879412e-05
-4.67306505236e-12
4.3283588541e-05
-4.94016285893e-12
4.32835892153e-05
-5.24653183605e-12
4.32835899863e-05
-5.60003050015e-12
4.32835909179e-05
-6.064427578e-12
4.32835920074e-05
-6.59422340937e-12
4.32835933432e-05
-7.15159169315e-12
4.32835949169e-05
-7.86238972914e-12
4.32835967238e-05
-8.7444707745e-12
4.3283598962e-05
-9.74691702178e-12
4.32836017061e-05
-1.0919303173e-11
4.32836050559e-05
-1.2330999594e-11
4.32836091227e-05
-1.40889462376e-11
4.3283614114e-05
-1.62626304299e-11
4.32836200507e-05
-1.89503997842e-11
4.32836272355e-05
-2.22903201591e-11
4.32836359086e-05
-2.63777873805e-11
4.3283646534e-05
-3.14563880718e-11
4.32836595593e-05
-3.77951453004e-11
4.32836754452e-05
-4.56116260588e-11
4.32836949479e-05
-5.52219307232e-11
4.32837188856e-05
-6.70734449655e-11
4.32837483232e-05
-8.17239903562e-11
4.32837845864e-05
-9.98786780139e-11
4.3283829232e-05
-1.22399849007e-10
4.3283884386e-05
-1.50334662187e-10
4.32839525069e-05
-1.84872173108e-10
4.3284036633e-05
-2.27641900041e-10
4.32841405393e-05
-2.80588910366e-10
4.32842689321e-05
-3.46070029685e-10
4.32844276892e-05
-4.27187566841e-10
4.32846238372e-05
-5.27756033827e-10
4.32848662829e-05
-6.52185130072e-10
4.32851661986e-05
-8.06199918818e-10
4.32855372203e-05
-9.96945780032e-10
4.3285996179e-05
-1.23305405198e-09
4.32865640618e-05
-1.52539262878e-09
4.3287267124e-05
-1.88747598727e-09
4.32881372627e-05
-2.33629943406e-09
4.32892141478e-05
-2.89236564616e-09
4.32905473213e-05
-3.58142119062e-09
4.32921975542e-05
-4.43537874017e-09
4.329424056e-05
-5.49310482056e-09
4.32967701388e-05
-6.8030604181e-09
4.32999023219e-05
-8.42565234757e-09
4.33037808895e-05
-1.04357831372e-08
4.33085841135e-05
-1.29262229781e-08
4.3314533218e-05
-1.60122506628e-08
4.33219022338e-05
-1.98371842659e-08
4.33310310964e-05
-2.45791328386e-08
4.33423420751e-05
-3.04599560677e-08
4.33563593357e-05
-3.7756225892e-08
4.33737343613e-05
-4.6813009014e-08
4.33952779431e-05
-5.80623234043e-08
4.34219999663e-05
-7.20464492314e-08
4.34551602758e-05
-8.94477071386e-08
4.34963333035e-05
-1.11128193149e-07
4.35474916223e-05
-1.38182724653e-07
4.36111139358e-05
-1.72010967696e-07
4.3690325344e-05
-2.14415779145e-07
4.37890851598e-05
-2.67741186876e-07
4.39124391624e-05
-3.35074217095e-07
4.40668626667e-05
-4.2054379973e-07
4.4260739021e-05
-5.29781709435e-07
4.45050372065e-05
-6.70667439373e-07
4.48142662646e-05
-8.54577884639e-07
4.52077957995e-05
-1.09857210366e-06
4.57115151892e-05
-1.42933260064e-06
4.63592658912e-05
-1.89036471818e-06
4.71917694145e-05
-2.55493442536e-06
4.82461167368e-05
-3.54728587072e-06
4.95180591554e-05
-5.06974793348e-06
5.08580003087e-05
-7.41608472968e-06
-1.0876192106e-05
5.17818775345e-05
5.27606088517e-05
6.19125874122e-06
5.57402406263e-05
1.28705023525e-05
5.73124122253e-05
1.4683214785e-05
5.76111980096e-05
1.37486535699e-05
5.71338687588e-05
1.16335590474e-05
5.63199842023e-05
9.26535492213e-06
5.54496450546e-05
7.094750619e-06
5.46637031018e-05
5.28436635657e-06
5.40144132155e-05
3.85358809825e-06
5.35068427686e-05
2.76147687384e-06
5.312487825e-05
1.94820773235e-06
5.28455244467e-05
1.3540803695e-06
5.26458883205e-05
9.27012985283e-07
5.25060755535e-05
6.24518111118e-07
5.24099980026e-05
4.13289888607e-07
5.23452165308e-05
2.67914675074e-07
5.23024113707e-05
1.69389855888e-07
5.22747665468e-05
1.0374014685e-07
5.22573944379e-05
6.08372696719e-08
5.22468522837e-05
3.34417031285e-08
5.22407560995e-05
1.64477310059e-08
5.22374831781e-05
6.30357333576e-09
5.22359419896e-05
5.78110863847e-10
5.22354267e-05
-2.38753845233e-09
5.22354785944e-05
-3.66936812073e-09
5.22358135003e-05
-3.97961637109e-09
5.2236260757e-05
-3.76814220228e-09
5.22367235431e-05
-3.31159297527e-09
5.2237151471e-05
-2.77308401654e-09
5.22375219271e-05
-2.24293889175e-09
5.22378288719e-05
-1.76608169539e-09
5.22380752261e-05
-1.3604727499e-09
5.22382679231e-05
-1.028669154e-09
5.22384155239e-05
-7.65028378552e-10
5.22385266081e-05
-5.60371203319e-10
5.22386088832e-05
-4.04635913955e-10
5.223866888e-05
-2.88151103994e-10
5.22387119488e-05
-2.02368844441e-10
5.22387424849e-05
-1.40088908278e-10
5.22387638644e-05
-9.55503556752e-11
5.22387785646e-05
-6.4132871239e-11
5.22387884886e-05
-4.22518644888e-11
5.22387951227e-05
-2.72701516003e-11
5.22387994655e-05
-1.72290940872e-11
5.22388022163e-05
-1.06184796326e-11
5.22388039579e-05
-6.33713699037e-12
5.2238805057e-05
-3.64851749735e-12
5.22388056893e-05
-2.02349267959e-12
5.2238805958e-05
-1.08715429107e-12
5.22388060044e-05
-5.84557296149e-13
5.22388059089e-05
-3.65164116506e-13
5.22388057625e-05
-3.17723068934e-13
5.22388056006e-05
-3.89444714828e-13
5.22388054531e-05
-5.20569736977e-13
5.22388053482e-05
-6.42754645259e-13
5.22388052714e-05
-7.49670527051e-13
5.22388052176e-05
-8.58698291529e-13
5.22388051453e-05
-9.65154333641e-13
5.22388050604e-05
-1.05581264609e-12
5.22388049915e-05
-1.15095736288e-12
5.22388049264e-05
-1.26285347974e-12
5.22388048412e-05
-1.3677783853e-12
5.2238804759e-05
-1.44935615127e-12
5.22388046981e-05
-1.53860837866e-12
5.22388046284e-05
-1.64813375053e-12
5.22388045443e-05
-1.75064365726e-12
5.22388044706e-05
-1.85139009366e-12
5.22388043966e-05
-1.96970697577e-12
5.22388043119e-05
-2.08187902818e-12
5.22388042273e-05
-2.16435876491e-12
5.22388041503e-05
-2.23312991919e-12
5.2238804086e-05
-2.32330583005e-12
5.22388040119e-05
-2.44000585169e-12
5.22388039365e-05
-2.55595813329e-12
5.22388038771e-05
-2.67300091417e-12
5.22388037955e-05
-2.79943552918e-12
5.22388037036e-05
-2.93086639368e-12
5.22388036177e-05
-3.08142905728e-12
5.22388035348e-05
-3.24072711933e-12
5.22388034924e-05
-3.3982470388e-12
5.22388034598e-05
-3.57750687288e-12
5.22388034064e-05
-3.77381693536e-12
5.22388033778e-05
-3.9607684023e-12
5.22388033931e-05
-4.1497319164e-12
5.22388034374e-05
-4.36586973841e-12
5.22388035077e-05
-4.58807522562e-12
5.2238803657e-05
-4.82053583143e-12
5.22388038913e-05
-5.14680618024e-12
5.22388041176e-05
-5.56999014803e-12
5.22388044251e-05
-6.01510958936e-12
5.22388049246e-05
-6.54050202096e-12
5.22388055264e-05
-7.20855482934e-12
5.22388062916e-05
-7.97874464971e-12
5.22388073529e-05
-8.90053769645e-12
5.22388086959e-05
-1.00310920989e-11
5.22388104089e-05
-1.13657594365e-11
5.22388125692e-05
-1.29541036239e-11
5.2238815255e-05
-1.4897353049e-11
5.2238818586e-05
-1.73646178551e-11
5.22388226654e-05
-2.04180602651e-11
5.22388278656e-05
-2.41556656398e-11
5.22388344519e-05
-2.87849030209e-11
5.22388425676e-05
-3.4497579802e-11
5.22388526949e-05
-4.15385026721e-11
5.22388653679e-05
-5.02637967419e-11
5.22388810682e-05
-6.1089947218e-11
5.22389005567e-05
-7.45046976402e-11
5.22389246802e-05
-9.10697888609e-11
5.22389545635e-05
-1.11477037224e-10
5.2238991642e-05
-1.36722227678e-10
5.22390375216e-05
-1.68005478217e-10
5.22390942004e-05
-2.06744270383e-10
5.22391642302e-05
-2.5469589614e-10
5.22392508598e-05
-3.14074390872e-10
5.22393580652e-05
-3.87578801604e-10
5.22394906183e-05
-4.7849352387e-10
5.22396546268e-05
-5.91041647624e-10
5.22398575781e-05
-7.30435558276e-10
5.22401085592e-05
-9.03002380984e-10
5.22404191439e-05
-1.11668823988e-09
5.22408036237e-05
-1.38119992186e-09
5.22412794099e-05
-1.70879029352e-09
5.22418682854e-05
-2.11427004611e-09
5.2242597343e-05
-2.61643883931e-09
5.22434998753e-05
-3.23859716525e-09
5.22446169321e-05
-4.00938195865e-09
5.22459996919e-05
-4.96422583995e-09
5.22477114956e-05
-6.14701237807e-09
5.22498306921e-05
-7.61204628391e-09
5.22524543224e-05
-9.42657312187e-09
5.22557026422e-05
-1.16739785848e-08
5.2259724688e-05
-1.44578628202e-08
5.22647049948e-05
-1.79066910427e-08
5.22708724551e-05
-2.21798280153e-08
5.22785105781e-05
-2.74753123389e-08
5.22879706585e-05
-3.40392719359e-08
5.22996887463e-05
-4.21779520553e-08
5.23142057164e-05
-5.22729127023e-08
5.23321925737e-05
-6.47998113508e-08
5.23544829261e-05
-8.03529344472e-08
5.23821131559e-05
-9.96769319229e-08
5.24163725563e-05
-1.23707135649e-07
5.2458866722e-05
-1.5362233951e-07
5.25115980909e-05
-1.9091439381e-07
5.25770689829e-05
-2.37482083667e-07
5.26584119746e-05
-2.95758744481e-07
5.27595575647e-05
-3.68887257115e-07
5.28854527814e-05
-4.60969976448e-07
5.30423413229e-05
-5.77432151313e-07
5.32381217815e-05
-7.25562267531e-07
5.34828006194e-05
-9.15346414513e-07
5.37890147407e-05
-1.16079170178e-06
5.41725179874e-05
-1.4820754399e-06
5.46522683168e-05