/*--------------------------------*- C++ -*----------------------------------*\
| =========                 |                                                 |
| \\      /  F ield         | OpenFOAM: The Open Source CFD Toolbox           |
|  \\    /   O peration     | Version:  2106                                  |
|   \\  /    A nd           | Website:  www.openfoam.com                      |
|    \\/     M anipulation  |                                                 |
\*---------------------------------------------------------------------------*/
FoamFile
{
    version     2.0;
    format      ascii;
    arch        "LSB;label=32;scalar=64";
    class       surfaceScalarField;
    location    "0.113";
    object      phi;
}
// * * * * * * * * * * * * * * * * * * * * * * * * * * * * * * * * * * * * * //

dimensions      [0 3 -1 0 0 0 0];

oriented        oriented;

internalField   nonuniform List<scalar> 
799
(
1.67255e-32
4.34463e-32
5.553e-32
4.35817e-32
1.72301e-32
-5.07016e-32
-1.11365e-31
-1.58522e-31
-1.69846e-31
-1.33354e-31
-7.88172e-32
-1.78013e-32
1.94127e-32
2.78954e-32
5.05039e-33
-3.54357e-32
-8.75832e-32
-1.4119e-31
-1.82413e-31
-2.11281e-31
-2.03998e-31
-1.68741e-31
-1.08397e-31
-3.84449e-32
1.33762e-33
9.63793e-33
-3.28168e-32
-1.04229e-31
-1.71306e-31
-2.24681e-31
-2.28305e-31
-2.01771e-31
-1.56203e-31
-1.01914e-31
-7.77778e-32
-6.7447e-32
-8.5387e-32
-1.24021e-31
-1.54628e-31
-1.92042e-31
-2.01717e-31
-1.89933e-31
-1.67153e-31
-1.2111e-31
-9.65235e-32
-8.68587e-32
-1.03381e-31
-1.52938e-31
-1.93473e-31
-2.30329e-31
-2.32808e-31
-1.99495e-31
-1.56827e-31
-1.03015e-31
-7.90704e-32
-8.56769e-32
-1.19209e-31
-1.78708e-31
-2.24506e-31
-2.50029e-31
-2.37219e-31
-1.84405e-31
-1.22622e-31
-6.79962e-32
-5.54713e-32
-9.64883e-32
-1.70541e-31
-2.54298e-31
-2.99947e-31
-2.82639e-31
-2.11443e-31
-1.0986e-31
-3.35642e-32
-1.71573e-32
-6.43351e-32
-1.58186e-31
-2.44747e-31
-2.8941e-31
-2.77914e-31
-2.1865e-31
-1.52376e-31
-1.0332e-31
-8.78869e-32
-1.02811e-31
-1.26832e-31
-1.52666e-31
-1.72119e-31
-1.90124e-31
-2.10278e-31
-2.22386e-31
-2.20255e-31
-1.88962e-31
-1.36232e-31
-8.2648e-32
-4.98018e-32
-6.85059e-32
-1.26907e-31
-2.08489e-31
-2.77651e-31
-2.90809e-31
-2.55323e-31
-1.69334e-31
-7.82902e-32
-2.48302e-32
-1.55684e-32
-7.32861e-32
-1.52314e-31
-2.25864e-31
-2.69551e-31
-2.5231e-31
-2.08226e-31
-1.4522e-31
-9.83338e-32
-8.95106e-32
-1.00709e-31
-1.31088e-31
-1.4769e-31
-1.44954e-31
-1.31978e-31
-1.17851e-31
-1.27536e-31
-1.57795e-31
-1.99092e-31
-2.29678e-31
-2.28021e-31
-1.93111e-31
-1.33508e-31
-7.38113e-32
-3.57615e-32
-3.01666e-32
-5.98792e-32
-1.12024e-31
-1.72757e-31
-2.27859e-31
-2.59506e-31
-2.62022e-31
-2.28086e-31
-1.63726e-31
-8.9767e-32
-2.4771e-32
7.32548e-34
-2.16156e-32
-8.46081e-32
-1.6859e-31
-2.3322e-31
-2.59508e-31
-2.35806e-31
-1.75356e-31
-1.12419e-31
-6.89062e-32
-6.79216e-32
-1.02292e-31
-1.49096e-31
-1.85994e-31
-1.86318e-31
-1.53218e-31
-1.02218e-31
-6.02921e-32
-5.72693e-32
-9.70924e-32
-1.67985e-31
-2.34597e-31
-2.61307e-31
-2.30164e-31
-1.49731e-31
-6.01228e-32
-1.77998e-33
-9.4333e-33
-7.5668e-32
-1.65353e-31
-2.35838e-31
-2.42439e-31
-1.95741e-31
-1.17962e-31
-5.49522e-32
-4.82009e-32
-8.38159e-32
-1.52321e-31
-2.0154e-31
-2.03303e-31
-1.66644e-31
-9.52442e-32
-4.53361e-32
-3.14296e-32
-6.00183e-32
-1.2688e-31
-1.82312e-31
-2.18206e-31
-2.09935e-31
-1.62257e-31
-1.06269e-31
-4.96742e-32
-2.59564e-32
-3.37794e-32
-6.45841e-32
-1.12353e-31
-1.49151e-31
-1.72541e-31
-1.75454e-31
-1.56941e-31
-1.29551e-31
-9.31458e-32
-5.84628e-32
-3.49895e-32
-2.67448e-32
-4.42e-32
-8.20729e-32
-1.26514e-31
-1.61069e-31
-1.62016e-31
-1.25697e-31
-6.51478e-32
-5.34145e-33
1.84453e-32
-7.1243e-33
-7.18432e-32
-1.43847e-31
-1.77623e-31
-1.47941e-31
-6.14432e-32
4.56212e-32
1.16767e-31
1.11566e-31
3.00159e-32
-9.38116e-32
-1.92981e-31
-2.12054e-31
-1.38848e-31
3.90979e-33
1.44777e-31
2.20463e-31
2.03047e-31
9.76092e-32
-3.04507e-32
-1.21534e-31
-1.3367e-31
-5.43353e-32
6.82825e-32
1.88345e-31
2.57326e-31
2.50997e-31
1.93977e-31
1.15335e-31
6.01993e-32
5.72904e-32
1.0386e-31
1.82894e-31
2.60114e-31
3.06519e-31
3.12718e-31
2.92979e-31
2.71487e-31
2.78784e-31
3.25624e-31
3.93206e-31
4.59578e-31
4.88672e-31
4.73044e-31
4.37312e-31
4.09252e-31
4.3248e-31
5.14765e-31
6.30297e-31
7.46534e-31
8.16679e-31
8.28436e-31
8.043e-31
7.71916e-31
7.73384e-31
8.23106e-31
9.0346e-31
1.0019e-30
1.08776e-30
1.15423e-30
1.21537e-30
1.26851e-30
1.33188e-30
1.39857e-30
1.45893e-30
1.5232e-30
1.5836e-30
1.65662e-30
1.74404e-30
1.83454e-30
1.92724e-30
2.00887e-30
2.09044e-30
2.1884e-30
2.3146e-30
2.47084e-30
2.63348e-30
2.77142e-30
2.86034e-30
2.90789e-30
2.94599e-30
3.02637e-30
3.18406e-30
3.41265e-30
3.67871e-30
3.91611e-30
4.08664e-30
4.18787e-30
4.2521e-30
4.34688e-30
4.50672e-30
4.74347e-30
5.02655e-30
5.30037e-30
5.53891e-30
5.72839e-30
5.89982e-30
6.09248e-30
6.32441e-30
6.60457e-30
6.90111e-30
7.18889e-30
7.4558e-30
7.70144e-30
7.95974e-30
8.2484e-30
8.57876e-30
8.94476e-30
9.31154e-30
9.66523e-30
9.99139e-30
1.03018e-29
1.06315e-29
1.09953e-29
1.14154e-29
1.1876e-29
1.2345e-29
1.28027e-29
1.32169e-29
1.36054e-29
1.39931e-29
1.44106e-29
1.49002e-29
1.54498e-29
1.60463e-29
1.66462e-29
1.71967e-29
1.76832e-29
1.81083e-29
1.84753e-29
1.90028e-29
1.96401e-29
2.11046e-29
2.3633e-29
2.73544e-29
3.43374e-29
3.71273e-29
4.00217e-29
2.30577e-29
-1.95849e-29
-7.08487e-29
-1.76328e-28
-1.66852e-28
-1.05941e-28
1.82201e-28
8.26556e-28
1.19205e-27
1.83466e-27
1.07319e-27
-7.44542e-28
-3.0197e-27
-7.52595e-27
-7.19621e-27
-5.91374e-27
1.76576e-27
1.68939e-26
2.26857e-26
3.30666e-26
1.66662e-26
-1.35931e-26
-4.09892e-26
-9.04774e-26
-7.13042e-26
-4.21765e-26
3.15886e-26
1.54643e-25
1.62754e-25
1.92016e-25
5.433e-26
-1.45581e-25
-2.41544e-25
-4.15692e-25
-2.36505e-25
-3.16242e-26
2.19173e-25
5.89215e-25
4.55175e-25
3.83054e-25
-3.70648e-26
-5.43983e-25
-5.8003e-25
-7.54233e-25
-2.54559e-25
2.23647e-25
5.06867e-25
9.15312e-25
5.06878e-25
2.23663e-25
-2.54545e-25
-7.54228e-25
-5.80036e-25
-5.43995e-25
-3.70788e-26
3.83044e-25
4.55174e-25
5.89219e-25
2.19181e-25
-3.16185e-26
-2.36503e-25
-4.15694e-25
-2.41549e-25
-1.45586e-25
5.43263e-26
1.92015e-25
1.62754e-25
1.54643e-25
3.15889e-26
-4.21768e-26
-7.13049e-26
-9.04782e-26
-4.09902e-26
-1.35939e-26
1.66652e-26
3.30656e-26
2.26847e-26
1.68929e-26
1.76497e-27
-5.91444e-27
-7.19682e-27
-7.52651e-27
-3.02028e-27
-7.45144e-28
1.07254e-27
1.83398e-27
1.19135e-27
8.25873e-28
1.8159e-28
-1.0647e-28
-1.67281e-28
-1.7669e-28
-7.12093e-29
-1.99896e-29
2.25476e-29
3.94296e-29
3.65031e-29
3.37548e-29
2.69003e-29
2.3316e-29
2.09082e-29
1.94919e-29
1.88146e-29
1.82032e-29
1.77261e-29
1.72256e-29
1.6724e-29
1.62128e-29
1.57113e-29
1.52288e-29
1.47793e-29
1.43552e-29
1.3933e-29
1.34918e-29
1.30171e-29
1.25181e-29
1.20302e-29
1.15806e-29
1.11957e-29
1.08689e-29
1.05706e-29
1.02751e-29
9.94635e-30
9.58659e-30
9.20342e-30
8.81726e-30
8.45964e-30
8.13652e-30
7.86158e-30
7.62341e-30
7.40218e-30
7.18081e-30
6.93223e-30
6.65173e-30
6.34921e-30
6.0472e-30
5.77996e-30
5.56992e-30
5.4108e-30
5.28397e-30
5.1462e-30
4.96245e-30
4.73372e-30
4.46668e-30
4.2125e-30
4.00738e-30
3.86177e-30
3.78031e-30
3.71105e-30
3.62316e-30
3.48923e-30
3.29619e-30
3.08352e-30
2.87675e-30
2.71743e-30
2.62721e-30
2.58788e-30
2.57528e-30
2.54004e-30
2.44526e-30
2.28557e-30
2.08106e-30
1.88192e-30
1.74317e-30
1.68944e-30
1.71258e-30
1.76551e-30
1.78304e-30
1.72589e-30
1.58464e-30
1.39775e-30
1.22285e-30
1.10782e-30
1.07349e-30
1.09706e-30
1.14101e-30
1.15718e-30
1.12575e-30
1.0474e-30
9.40416e-31
8.40917e-31
7.60323e-31
7.18049e-31
7.03829e-31
7.02777e-31
7.0649e-31
6.85789e-31
6.51124e-31
5.95877e-31
5.36677e-31
4.99252e-31
4.73887e-31
4.78238e-31
4.80383e-31
4.64183e-31
4.31029e-31
3.65122e-31
3.09914e-31
2.74435e-31
2.70556e-31
3.05137e-31
3.34166e-31
3.50455e-31
3.3182e-31
2.79401e-31
2.26768e-31
1.78519e-31
1.55686e-31
1.50189e-31
1.41914e-31
1.35226e-31
1.23369e-31
1.2712e-31
1.59812e-31
2.04744e-31
2.47342e-31
2.43143e-31
1.73547e-31
5.96647e-32
-6.63844e-32
-1.30718e-31
-1.00019e-31
1.7023e-32
1.82387e-31
2.99604e-31
3.18299e-31
2.18607e-31
3.12922e-32
-1.42393e-31
-2.39557e-31
-2.05698e-31
-5.55796e-32
1.24779e-31
2.67901e-31
2.90861e-31
1.90357e-31
2.2887e-32
-1.47806e-31
-2.26033e-31
-1.94459e-31
-7.54645e-32
7.80272e-32
1.76951e-31
1.97889e-31
1.33523e-31
2.10919e-32
-7.47532e-32
-1.3415e-31
-1.3171e-31
-8.85213e-32
-3.40935e-32
2.23444e-32
5.38027e-32
7.03739e-32
6.86383e-32
4.71683e-32
1.87026e-32
-2.32383e-32
-5.97281e-32
-8.62109e-32
-9.59109e-32
-8.27228e-32
-5.69383e-32
-1.80375e-32
1.89418e-32
5.09728e-32
6.59612e-32
5.77042e-32
2.97962e-32
-2.08391e-32
-6.70886e-32
-1.04324e-31
-1.14242e-31
-9.05789e-32
-5.51433e-32
-3.98201e-33
3.12879e-32
4.8729e-32
5.08265e-32
2.50198e-32
-2.63762e-33
-4.03527e-32
-7.38363e-32
-8.84002e-32
-9.16803e-32
-6.59031e-32
-2.89454e-32
1.01909e-32
4.17265e-32
4.49261e-32
2.91126e-32
-6.11408e-33
-4.48666e-32
-7.14283e-32
-8.25366e-32
-7.06234e-32
-4.45537e-32
-1.20365e-32
1.58137e-32
2.92139e-32
2.35208e-32
3.38843e-33
-2.13011e-32
-4.02023e-32
-4.02625e-32
-3.15337e-32
-1.75819e-32
-1.29927e-32
-2.57954e-32
-3.66574e-32
-4.33259e-32
-2.29727e-32
1.66348e-32
5.02051e-32
6.45668e-32
3.02025e-32
-3.09526e-32
-9.29577e-32
-1.22834e-31
-9.04156e-32
-1.9309e-32
6.57314e-32
1.14406e-31
1.00457e-31
3.64813e-32
-5.27359e-32
-1.11092e-31
-1.16209e-31
-6.55779e-32
1.49192e-32
7.48419e-32
9.29773e-32
5.58414e-32
-9.98324e-33
-6.45788e-32
-8.49016e-32
-5.25598e-32
6.96691e-33
6.2683e-32
8.75889e-32
6.06134e-32
2.83736e-33
-6.11105e-32
-1.00291e-31
-8.89923e-32
-3.93138e-32
3.2327e-32
9.5153e-32
1.17827e-31
1.00332e-31
4.45319e-32
-2.68938e-32
-8.28075e-32
-1.13633e-31
-1.02325e-31
-5.61499e-32
6.70352e-33
7.6175e-32
1.21635e-31
1.34023e-31
1.06957e-31
4.01203e-32
-3.78129e-32
-1.08007e-31
-1.38825e-31
-1.13179e-31
-4.16091e-32
5.72483e-32
1.38312e-31
1.68546e-31
1.34522e-31
4.61146e-32
-5.35965e-32
-1.21947e-31
-1.27707e-31
-6.73376e-32
2.70081e-32
1.11633e-31
1.4764e-31
1.17276e-31
4.1558e-32
-4.29693e-32
-9.55397e-32
-8.65909e-32
-2.92877e-32
5.32106e-32
1.18572e-31
1.30768e-31
9.6632e-32
2.27132e-32
-4.57012e-32
-7.41521e-32
-6.14447e-32
9.14817e-34
6.59669e-32
1.08911e-31
1.17513e-31
7.51489e-32
2.40365e-32
-2.42331e-32
-4.65767e-32
-2.696e-32
6.17877e-33
5.12997e-32
8.20785e-32
8.76855e-32
7.9583e-32
5.52052e-32
3.32195e-32
2.01561e-32
1.29338e-32
1.49735e-32
1.74153e-32
1.56068e-32
1.67736e-32
1.68797e-32
2.66789e-32
4.94941e-32
7.34013e-32
1.0255e-31
1.11106e-31
9.71252e-32
6.19894e-32
3.90772e-33
-3.97554e-32
-6.55843e-32
-5.07377e-32
2.75047e-33
6.68937e-32
1.30191e-31
1.5374e-31
1.38544e-31
8.67285e-32
2.30743e-32
-2.5947e-32
-4.64781e-32
-2.52071e-32
5.48815e-33
5.42691e-32
7.46674e-32
7.53129e-32
6.83043e-32
2.34972e-32
1.41089e-32
-1.8355e-32
-2.45565e-32
-4.63265e-33
)
;

boundaryField
{
    left
    {
        type            calculated;
        value           uniform 0;
    }
    right
    {
        type            calculated;
        value           uniform 0;
    }
    empty
    {
        type            empty;
        value           nonuniform List<scalar> 0();
    }
}


// ************************************************************************* //
