/*--------------------------------*- C++ -*----------------------------------*\
| =========                 |                                                 |
| \\      /  F ield         | OpenFOAM: The Open Source CFD Toolbox           |
|  \\    /   O peration     | Version:  2106                                  |
|   \\  /    A nd           | Website:  www.openfoam.com                      |
|    \\/     M anipulation  |                                                 |
\*---------------------------------------------------------------------------*/
FoamFile
{
    version     2.0;
    format      ascii;
    arch        "LSB;label=32;scalar=64";
    class       volScalarField;
    location    "0.41";
    object      p;
}
// * * * * * * * * * * * * * * * * * * * * * * * * * * * * * * * * * * * * * //

dimensions      [0 2 -2 0 0 0 0];

internalField   nonuniform List<scalar> 
11200
(
150.093376756
147.164775433
146.050925392
145.523595237
145.156266774
144.861489697
144.59984721
144.351310096
144.106793232
143.861727185
143.613415051
143.360102422
143.10055745
142.833844681
142.559197262
142.275941724
141.983452161
141.681122497
141.3683538
141.044557841
140.70911074
140.361363293
140.000657114
139.626324201
139.237678864
138.834019693
138.414630451
137.978780749
137.525726751
137.054711737
136.564966673
136.055710692
135.526151588
134.975485351
134.402897237
133.807563242
133.188649479
132.545312317
131.87669927
131.181949081
130.460192201
129.710550904
128.932139415
128.12406403
127.285422773
126.415305744
125.512794498
124.576960864
123.606866404
122.601560847
121.56007952
120.481440872
119.364642609
118.208656815
117.012423766
115.774844157
114.494769271
113.170988486
111.802213307
110.38705772
108.92401312
107.411416817
105.847411551
104.229896957
102.556462191
100.824302805
99.0301086077
97.1699192437
95.2389308147
93.2312285299
91.1394231985
88.9541552357
86.6632257333
84.2504484845
81.6937377068
78.9614332462
76.0059349279
72.7546653644
69.0538932917
64.2906000014
148.300334542
146.942160879
146.151190247
145.651177048
145.260190082
144.936308808
144.651788861
144.38718776
144.131701161
143.879180903
143.625799896
143.369044835
143.107178842
142.838925558
142.563284545
142.27942092
141.986597195
141.684130448
141.371362136
141.047630307
140.712284666
140.364649519
140.004081121
139.629911184
139.241443567
138.837971158
138.418774903
137.983122571
137.530269016
137.059456536
136.569915126
136.060862265
135.531503952
134.981039829
134.408656863
133.813531389
133.194829265
132.551706813
131.883311558
131.188782309
130.467249633
129.717835924
128.939655685
128.131815732
127.293414667
126.423543215
125.521283951
124.585710008
123.61588447
122.610858877
121.569670985
120.491342213
119.374873949
118.219242844
117.023394854
115.786237714
114.5066315
113.183376562
111.815197852
110.400726104
108.938474377
107.426807414
105.863901564
104.247694446
102.575817572
100.845530409
99.0536184079
97.196243833
95.2687672083
93.2655037868
91.1793847932
89.0014539996
86.7201636576
84.3203779367
81.7817018478
79.0756271879
76.161355998
72.981055175
69.4319366443
65.3191512884
147.305143506
146.650943512
146.098588657
145.660972086
145.289349651
144.967249294
144.678150749
144.407918157
144.147456647
143.890977593
143.634596248
143.375631163
143.112170472
142.842787297
142.56636057
142.281961611
141.988780718
141.686079214
141.373158699
141.0493422
140.71396754
140.366395069
140.005880527
139.63177018
139.243371777
138.839975651
138.420860471
137.985292927
137.532527538
137.061806805
136.572361686
136.063412255
135.534167373
134.983819774
134.411551003
133.816540122
133.19795397
132.554949361
131.886674804
131.192269952
130.470866197
129.721586828
128.943547426
128.135856133
127.297613121
126.427910951
125.525834665
124.59046016
123.620854049
122.616072126
121.575157441
120.497137868
119.381022719
118.225798307
117.030422449
115.793817334
114.514860694
113.192374762
111.825111548
110.411734494
108.95079729
107.440713176
105.879717732
104.265842814
102.596851242
100.870149329
99.0826950284
97.2308899303
95.310420181
93.3160472135
91.2413213903
89.0781800862
86.8165285812
84.4434513261
81.9422278422
79.2909985124
76.4617907308
73.4229911838
70.1386248675
66.5856743655
146.755381157
146.392000202
145.992103073
145.623113786
145.285498312
144.977396981
144.69203457
144.421331446
144.158960371
143.900294584
143.641916315
143.381294248
143.116528736
142.846152604
142.568989786
142.284057717
141.990500025
141.687540447
141.374451761
141.050533921
140.715095896
140.367447437
140.006947136
139.632871695
139.244510269
138.841155053
138.422084454
137.986563934
137.533846895
137.06317484
136.573777542
136.064873162
135.535668838
134.985363135
134.413146233
133.818191998
133.1996686
132.556733661
131.88853482
131.194212161
130.472897846
129.72371621
128.945784241
128.138212
127.300102013
126.430549582
125.528643331
124.593463675
123.624082539
122.61956213
121.578953388
120.501293753
119.385604228
118.230885501
117.036113099
115.800231089
114.522144098
113.200707545
111.834714904
110.422879693
108.963821184
107.456041184
105.897879049
104.287475482
102.622729353
100.901242412
99.1202391361
97.2764673679
95.3660742157
93.3844499954
91.3260376926
89.1841079304
86.9504293947
84.6149606348
82.1656132249
79.5882896171
76.8682453985
73.9957749249
70.9744781518
67.8415372312
146.421331712
146.189536583
145.88812513
145.577149288
145.272311035
144.980288802
144.701314218
144.432189058
144.169229855
143.909146657
143.649179327
143.387090671
143.121088342
142.849723376
142.571799108
142.286298547
141.992329013
141.689081238
141.375799833
141.051762053
140.716262939
140.368606048
140.008094863
139.634018652
139.245680131
138.842362878
138.42334005
137.987874688
137.53521887
137.064613514
136.575288506
136.06646264
135.537343765
134.987128659
134.415003523
133.820144392
133.201716693
132.558878509
131.890780768
131.196563938
130.475362586
129.726303393
128.948505764
128.141082741
127.303139887
126.433776481
125.532085648
124.597153507
123.628058813
122.623871874
121.583654155
120.506455808
119.391313239
118.237245934
117.043252249
115.808303362
114.531336151
113.211247256
111.846879319
110.43701247
108.980344116
107.475462288
105.920830546
104.314753759
102.655338376
100.940442946
99.1676198015
97.3340471444
95.4364454884
93.4709806976
91.4331561152
89.3177072629
87.1185260355
84.8286940863
82.4407909833
79.9478080757
77.3455494837
74.6384575342
71.8478928572
69.024553213
146.217937479
146.042035761
145.80084206
145.533517733
145.256332321
144.979695522
144.708007162
144.441506703
144.178742739
143.917735368
143.656449938
143.393019636
143.125819177
142.853457858
142.574742823
142.288636385
141.994216465
141.690643607
141.377135037
141.052944822
140.717349457
140.369636947
140.009097719
139.635021884
139.246698732
138.843407428
138.424418484
137.988992885
137.53638122
137.065823163
136.576547571
136.067772407
135.538705006
134.98854221
134.416470781
133.821667948
133.203302273
132.560533657
131.892513218
131.198385729
130.477286602
129.728343141
128.950676689
128.143403078
127.305631137
126.436464754
125.535002633
124.60033774
123.631557282
122.627742239
121.587965725
120.511292656
119.396777483
118.243461691
117.050370879
115.816511483
114.540863341
113.222374084
111.85995449
110.452453379
108.998655799
107.497268767
105.946909448
104.346062002
102.69305862
100.986050037
99.2229654474
97.4014713373
95.5189279254
93.572349338
91.5583795035
89.4733070234
87.3131658222
85.0740148691
82.7525693984
80.3474781823
77.8618093262
75.3077163884
72.7121471334
70.1221997165
146.094818787
145.939211522
145.732910947
145.496350623
145.240877544
144.97760031
144.712989372
144.449483025
144.187352159
143.925769112
143.663400102
143.398768846
143.130445762
142.857122451
142.577626817
142.290911308
141.996030973
141.692119934
141.378370107
141.054013503
140.718308156
140.370527512
140.009952573
139.635865625
139.247547648
138.844272855
138.425308912
137.989914653
137.53733903
137.066820916
136.577588739
136.068860569
135.539844045
134.989736533
134.417726056
133.822990819
133.204699864
132.562013784
131.894084703
131.200056343
130.479064242
129.730239645
128.952708406
128.145589648
127.307997997
126.439042523
125.537828172
124.603455681
123.635021745
122.631618801
121.592334138
120.516250013
119.402442056
118.249977527
117.057912959
115.825291147
114.551137206
113.234454673
111.874218007
110.469367863
109.018803115
107.521363519
105.975819459
104.380859571
102.735071531
101.036926012
99.2847589319
97.4767566854
95.6109498424
93.6852238844
91.6973644642
89.6451659113
87.5266490532
85.340481302
83.0867312849
80.7681568759
78.3923074459
75.9747807237
73.5424511593
71.1346755176
146.020737136
145.870727423
145.683973257
145.467870032
145.228166585
144.975348194
144.716714062
144.455978921
144.194615423
143.932697326
143.669484008
143.403852262
143.134561784
142.860391463
142.58019789
142.292931271
141.997630095
141.693407009
141.379432372
141.054918943
140.719108609
140.371261882
140.010649652
139.636546195
139.248227582
138.844963054
138.42601744
137.990647642
137.538101289
137.067616492
136.578421213
136.069733285
135.540760677
134.990701021
134.418742461
133.824063718
133.20583469
132.563216351
131.895361878
131.201417883
130.480526034
129.731819712
128.954425317
128.147465795
127.310060233
126.44132367
125.540368181
124.606303043
123.638235351
122.635270237
121.596511072
120.52105885
119.408011884
118.256465067
117.065509176
115.83422951
114.561703424
113.246995758
111.889160188
110.48722683
109.040205017
107.547075518
106.006783105
104.418231512
102.78027657
101.091722784
99.3513246025
97.557796217
95.7098364768
93.8061804995
91.8456957703
89.8275526013
87.7515054489
85.618366812
83.4307496858
81.1941875022
78.9187169556
76.6209422186
74.3255418171
72.0645232896
145.978458827
145.8290116
145.652597704
145.448862037
145.219332506
144.973627594
144.719271242
144.460636591
144.199933681
143.937843633
143.674050756
143.407697409
143.137692284
142.862886884
142.582164568
142.294477212
141.998852808
141.694388781
141.380239705
141.055603934
140.71971116
140.371811998
140.011169615
139.637053241
139.248731634
138.845473931
138.426541841
137.991190454
137.538666496
137.068207485
136.579041241
136.070385557
135.541448522
134.991428256
134.41951343
133.824883533
133.206709584
132.564154358
131.896373455
131.202515457
130.481720735
129.733126557
128.95586421
128.149061128
127.31184136
126.44332616
125.542635235
124.608887101
123.641200085
122.638692909
121.600485177
120.52569801
119.413454372
118.262879077
117.07309869
115.843242184
114.57243957
113.259820744
111.904517992
110.505661795
109.06238111
107.573802306
106.039049257
104.45724532
102.82751743
101.149005491
99.4208788526
97.6423662501
95.8128047946
93.9317217155
91.9989622756
90.0148933557
87.9807100434
85.8989040804
83.7739215894
81.6130574948
79.4275623032
77.2338469661
75.053954465
72.914063206
145.959180564
145.809303189
145.63734206
145.439409356
145.214851429
144.972736114
144.720604924
144.463100054
144.202777097
143.940620312
143.676534617
143.409804507
143.139420601
142.864275603
142.583268972
142.295354537
141.999555348
141.69496098
141.380717651
141.056016009
140.720079182
140.372152445
140.011494733
139.637371999
139.249051609
138.845799968
138.426877892
137.991539657
137.539031685
137.068591357
136.579446373
136.070814881
135.541905263
134.99191618
134.420036993
133.8254482
133.207321977
132.56482244
131.897106335
131.203323632
130.482619031
129.734132144
128.956997716
128.1503474
127.313310575
126.445015071
125.544588437
124.611158789
123.643856014
122.641812898
121.604166129
120.530057599
119.418635375
118.269055238
117.0804811
115.852087006
114.583058806
113.272592889
111.919903203
110.524219707
109.084791022
107.600890571
106.071821651
104.496926699
102.875599602
101.207306242
99.4916139664
97.728236274
95.9170985039
94.0584382176
92.1529477204
90.201996302
88.2079239034
86.1744841594
84.1073849511
82.0149704464
79.9089643106
77.8051201817
75.7231269779
73.6849081294
145.959181504
145.809317642
145.637367523
145.439444142
145.214894778
144.972787258
144.720662922
144.463164062
144.2028464
143.940694311
143.676612814
143.40988651
143.13950611
142.864364403
142.583360957
142.295449682
141.99965365
141.695062524
141.380822576
141.056124493
140.720191461
140.372268831
140.011615612
139.637497885
139.24918323
138.845938056
138.427023432
137.991693795
137.539195757
137.068766946
136.579635465
136.071019904
135.542129174
134.992162667
134.420310427
133.825753792
133.207666071
132.565212732
131.89755241
131.20383731
130.483214335
129.734826034
128.957811001
128.151305365
127.314443765
126.446360686
125.546191631
124.613074467
123.646150878
122.6445679
121.607479424
120.534048328
119.423448334
118.274865684
117.087501984
115.860576585
114.593329343
113.285026174
111.934959171
110.542459379
109.106892962
107.627678224
106.104293904
104.53629424
102.923329017
101.265171078
99.5617533802
97.8132254803
96.0200330089
94.183025959
92.3036325415
90.3841549986
88.427707431
86.4389110967
84.4242819807
82.3927207733
80.356013626
78.3291776835
76.3301144337
74.3779163437
145.978461732
145.829055351
145.652674721
145.448967173
145.219463481
144.973781796
144.719445877
144.460829168
144.200142059
143.938066006
143.674285635
143.407943633
143.137948962
142.863153411
142.582440634
142.294762673
141.999147721
141.694693393
141.380554418
141.055929281
140.72004785
140.372160952
140.011532007
139.637430677
139.249126178
138.845887763
138.426977732
137.991651707
137.539157104
137.068732404
136.579606351
136.070998147
135.542117269
134.99216389
134.420329071
133.825794981
133.207736026
132.565319015
131.897704472
131.204046553
130.483494527
129.735193907
128.958286984
128.151914464
127.31521628
126.447333312
125.54740894
124.614590608
123.648031628
122.646893136
121.61034611
120.537573637
119.427774782
118.280166192
117.093985994
115.868498223
114.602996478
113.29681304
111.949317267
110.559932964
109.12814688
107.653512528
106.135673763
104.574382546
102.969524097
101.3211543
99.6295584147
97.8953222674
96.1193350435
94.3029717147
92.448209762
90.5577317703
88.6355144167
86.6868164248
84.7186296867
82.7401064272
80.7629198041
78.8014739322
76.8724846355
74.9933912669
146.020742319
145.870801697
145.684103576
145.468047451
145.228387104
144.975607255
144.717006924
144.456301417
144.19496399
143.933068973
143.669876274
143.404263225
143.134989993
142.860835939
142.580658086
142.293406979
141.998121447
141.693914401
141.379956469
141.055460647
140.719669158
140.371842824
140.011252832
139.637174284
139.248883571
138.845650794
138.426741519
137.991413435
137.538915377
137.068486911
136.579357743
136.070747839
135.541867465
134.991917458
134.420089841
133.825567877
133.207526987
132.565135272
131.897554806
131.203941932
130.483448276
129.735222123
128.958409267
128.152154713
127.31560372
126.447903362
125.548204561
124.615663944
123.649445901
122.648724993
121.612688894
120.540540527
119.431502386
118.284820278
117.099767805
115.875651473
114.61181598
113.307654394
111.962613209
110.576203464
109.148017522
107.67774235
106.165177486
104.610262764
103.013112161
101.374040812
99.6936033488
97.9726576537
96.2125241478
94.4150179749
92.5825941188
90.7185139406
88.8270860552
86.9139122248
84.9862114832
83.0531549573
81.1261831439
79.2192417853
77.3484620075
75.5307569982
146.094826843
145.939318668
145.733097816
145.496603868
145.241191129
144.977967519
144.713403403
144.449938001
144.18784309
143.926291838
143.663951239
143.399345745
143.131046454
142.857745584
142.578271616
142.291577503
141.996718741
141.692829819
141.37910297
141.054770547
140.719091056
140.371338451
140.010794267
139.63674156
139.24846195
138.84523072
138.426316538
137.990979447
137.538470083
137.068029322
136.578888006
136.070266933
135.541377224
134.991420488
134.419589425
133.825068352
133.207033739
132.564655129
131.897095952
131.203514456
130.483064649
129.734897433
128.958161953
128.152007082
127.315582962
126.448042623
125.548544105
124.616252653
123.650343033
122.650002387
121.61443347
120.542858273
119.43452159
118.288695703
117.104687337
115.88184274
114.619554154
113.317271528
111.974511579
110.590868172
109.166032279
107.699808388
106.192135208
104.643112642
103.053032708
101.422433671
99.7521510512
98.0433680973
96.297696215
94.5172773873
92.7049097071
90.8641929325
88.9997084764
87.117230263
85.2239880042
83.3289647396
81.4432394403
79.5803809631
77.7563986477
75.9887006675
146.217949374
146.042179777
145.801090937
145.533852799
145.256745034
144.980176694
144.708547797
144.442099167
144.179380642
143.918413447
143.657163951
143.393766266
143.126595955
142.854263109
142.575575585
142.289496306
141.995103715
141.691558751
141.378078917
141.053918647
140.718354737
140.370675744
140.010174622
139.636142848
139.24786842
138.844631694
138.425704844
137.9903504
137.537820911
137.067358637
136.578195546
136.069553345
135.540643898
134.990669629
134.418824029
133.824292296
133.20625173
132.563873118
131.896321304
131.202756058
130.48233356
129.734207265
128.95752941
128.151452536
127.315131139
126.447723643
125.548394583
124.616317006
123.650674989
122.650667211
121.615510152
120.544442542
119.43672978
118.291668292
117.108593774
115.886888561
114.625987513
113.325392071
111.984680327
110.603521378
109.181692462
107.719100656
106.215807349
104.672059027
103.088322358
101.465325801
99.8041128416
98.1061049151
96.3731767475
94.6077414024
92.8128540903
90.9923320483
89.1508987017
87.2943445221
85.4297311173
83.5656517534
81.7126203314
79.8837172833
78.0949726013
76.3650592696
146.421348507
146.189722678
145.888442825
145.577573483
145.272829975
144.980890397
144.701987137
144.432923912
144.170018948
143.909983729
143.650059369
143.388009827
143.122043766
142.850713196
142.572822332
142.287354957
141.993419018
141.690205639
141.376959582
141.052958362
140.717497531
140.36988025
140.009410863
139.635389961
139.247110797
138.843858722
138.424909411
137.989527854
137.53696837
137.066474527
136.577279287
136.068605243
135.539664967
134.989661584
134.417789305
133.823234333
133.205174927
132.562782831
131.895224244
131.201660279
130.481248581
129.733144719
128.956503504
128.150480663
127.314234593
126.446928469
125.54773252
124.615826689
123.650403517
122.650671536
121.615859525
120.545220591
119.438038033
118.293630126
117.111357768
115.890634736
114.630932483
113.33179595
111.992856695
110.613846798
109.194619045
107.735169971
106.235665957
104.696474799
103.118202714
101.501739082
99.8483075858
98.1595248136
96.437469578
94.6847594375
92.9046363084
91.1010581671
89.2787989938
87.4435557057
85.6020800756
83.7623663692
81.9340359003
80.1292432989
78.3635038138
76.6566724605
146.755403328
146.392232488
145.992492533
145.623627906
145.286121398
144.97811357
144.692830869
144.422196378
144.159885049
143.901271864
143.642940563
143.382361207
143.117635328
142.847296946
142.570171167
142.285276577
141.991757939
141.688840004
141.375796049
141.051926955
140.716546952
140.368972403
140.008519042
139.634493994
139.246196902
138.842917414
138.423934321
137.988514911
137.535915039
137.065379293
136.576141401
136.067424673
135.538442133
134.988397392
134.416484934
133.821891654
133.203796898
132.561373228
131.893787949
131.200204004
130.479780966
129.731676007
128.955046057
128.149049447
127.312847771
126.445608096
125.546505283
124.614724716
123.649466083
122.649946216
121.615404147
120.54510434
119.438344646
118.294461138
117.112835687
115.892906782
114.634178715
113.336233196
111.998745535
110.621500293
109.204412122
107.7475501
106.251165424
104.715724284
103.141945736
101.530846367
99.8837911253
98.2025501701
96.4893612954
94.7469964781
92.9788315377
91.1889135786
89.3820186168
87.5636980802
85.7403165381
83.9190915292
82.1083259764
80.3184016978
78.5625340774
76.859376631
147.305176397
146.651236689
146.099060417
145.661581921
145.290078194
144.968077826
144.67906328
144.40890218
144.148502255
143.892076828
143.635742789
143.376820103
143.113398067
142.844050864
142.567658418
142.283293077
141.990146509
141.687482244
141.374604267
141.050837015
140.715512216
140.367959612
140.007500097
139.633453309
139.245123609
138.841803839
138.422775331
137.987307226
137.534656914
137.06406991
136.574780591
136.066012982
135.536980683
134.986887945
134.41492961
133.820292625
133.202155699
132.559692622
131.89207158
131.198455753
130.478005608
129.729880497
128.953239261
128.147242317
127.31105378
126.443843834
125.544791134
124.613085464
123.647931432
122.648552915
121.614196356
120.544135769
119.437680865
118.294181266
117.113035542
115.893701563
114.635705823
113.338658015
112.002266883
110.626356943
109.210889865
107.755989862
106.261972965
104.729380632
103.159018385
101.552000023
99.9097971012
98.2342935749
96.5278428322
94.7933306473
93.0342302942
91.2546523027
89.4593696371
87.6538111934
85.8439942619
84.0363071304
82.2374112044
80.4548667803
78.6957881944
76.968872309
148.300414046
146.942598796
146.151853805
145.652013744
145.261177116
144.937425682
144.65301876
144.388517687
144.133120843
143.880682067
143.627375846
143.370690099
143.108888832
142.840696192
142.565111912
142.281300876
141.98852484
141.686099274
141.373366888
141.049678969
140.714375763
140.366807834
140.00632309
139.632238027
139.243860816
138.84048762
138.421401375
137.985870197
137.533153252
137.062497557
136.573138042
136.064299043
135.535194427
134.985028843
134.412997524
133.818288118
133.200082303
132.557552905
131.889868127
131.196192107
130.47568632
129.727510708
128.950825225
128.144791709
127.308575867
126.441349972
125.542295224
124.610604767
123.645486887
122.64616923
121.611904368
120.541972192
119.435690256
118.292417514
117.111563267
115.892599348
114.635069721
113.338602964
112.002930021
110.627902719
109.213515356
107.759929761
106.267505348
104.736833381
103.168775994
101.564510476
99.9255783339
98.2539375939
96.5520147168
94.8227843575
93.0697941345
91.2972125613
89.5098446315
87.7131079843
85.9128998579
84.1150869465
82.3251989729
80.5479997149
78.7782925413
76.9865748726
150.093522639
147.165425721
146.051899496
145.524831268
145.157734781
144.863165307
144.601712016
144.353350623
144.108999536
143.86409206
143.615933512
143.362771433
143.103375906
142.836813438
142.562319323
142.279222302
141.986898619
141.684743634
141.372154725
141.048524331
140.713247105
140.365682981
140.005162897
139.631021547
139.242576701
138.839128945
138.419964421
137.984358152
137.531567764
137.060838878
136.571406476
136.062495016
135.533318397
134.983081298
134.41097912
133.816199062
133.197921595
132.555320673
131.887565126
131.193819551
130.473245669
129.725003936
128.948255096
128.142161956
127.305891101
126.438615775
125.539518432
124.607793981
123.642652925
122.643324627
121.609064737
120.539156634
119.432921326
118.289723223
117.108977045
115.890160817
114.632826329
113.336612544
112.001261998
110.6266399
109.212756718
107.759793581
106.268132489
104.738391126
103.171462334
101.568558493
99.9312608933
98.2615769196
96.5620040478
94.8355477363
93.0858129177
91.3170367512
89.53410837
87.7425466978
85.9483982073
84.1581599553
82.3782522998
80.6134587509
78.8433200347
76.9433853288
56.8965643359
53.3444459862
50.9530200489
48.9956123289
47.3235807192
45.8667528242
44.5811436997
43.4370472736
42.412790866
41.4916285211
40.6601540591
39.9073620422
39.2240502128
38.6024192716
38.0357886877
37.5183890156
37.0452026537
36.6118415018
36.2144483908
35.8496185503
35.514335295
35.2059160913
34.9219682992
34.6603514257
34.4191455085
34.1966237888
33.9912296833
33.8015567402
33.6263314448
33.4643981063
33.3147056318
33.1762961017
33.0482947216
32.9299008297
32.8203803555
32.7190590223
32.6253165678
32.5385814955
32.4583255939
32.3840602273
32.3153309248
32.2517126453
32.1928037324
32.1382216865
32.0876344754
32.0408928413
31.9978703121
31.9581574756
31.9214399451
31.8874111733
31.8558701719
31.8266332301
31.7995263751
31.7743878818
31.7510779239
31.729464389
31.7093960187
31.6907485917
31.6733969317
31.6572619761
31.6422210878
31.6281807583
31.6150538543
31.6027624753
31.5912347628
31.5804039014
31.5702089385
31.5605899282
31.5514984464
31.5428835914
31.5347057726
31.5269176505
31.5194912503
31.512385368
31.5055714849
31.4990207617
31.4927043899
31.4866023085
31.4806906891
31.4749488077
31.469361387
31.4639090648
31.458576943
31.4533571626
31.4482393202
31.4432148827
31.4382671121
31.4333897635
31.4285700151
31.4238025864
31.4190829493
31.4144211417
31.4097996945
31.4052032629
31.4006250853
31.396059986
31.391503211
31.3869505524
31.3823978637
31.377840796
31.3732754956
31.3686985844
31.3641070444
31.3594974038
31.3548664333
31.3502108949
31.3455274858
31.3408133936
31.3360657204
31.331281736
31.3264588653
31.3215951048
31.3166884173
31.3117366812
31.3067385404
31.301692338
31.2965970451
31.2914513056
31.2862544399
31.2810052602
31.2757034952
31.2703479279
31.2649337504
31.2594429982
31.2538294172
31.2479921245
31.2428153763
31.2377750236
31.232546444
31.2273101601
31.2221492603
31.2171206345
31.2122695974
31.2076557514
31.2033378265
31.199373671
31.1958149526
31.1927040563
31.1900481503
31.1878269348
31.18623892
31.1848484145
31.1836931128
31.1821308276
31.1785208508
31.1686658515
31.1425268185
31.0784489411
30.9351948998
30.6422299138
30.094341754
29.1587302622
27.7027424968
25.6335960605
22.9252200246
19.6336975196
15.8776120842
11.625295507
6.60155190742
1.56987681466
60.0779104153
56.0251096549
53.3131358529
51.1607877161
49.3588468339
47.808903557
46.452744354
45.2531346447
44.1839004453
43.2254086687
42.3623207119
41.58229223
40.8751684465
40.2324592916
39.6469729261
39.1125570626
38.6239031164
38.1763979995
37.7660085752
37.3891923474
37.0428188423
36.7241160169
36.4306144366
36.1601100143
35.9106298561
35.6803989459
35.4678191747
35.271449599
35.0899810365
34.9222305645
34.7671191905
34.6236626959
34.4909663109
34.3682056509
34.25462762
34.1495416373
34.0523087557
33.9623447863
33.8791100759
33.8021047219
33.7308723463
33.6649896939
33.6040675053
33.547753704
33.4957092567
33.4475597588
33.4029503675
33.3616452561
33.3234279425
33.2880752115
33.255369096
33.2251039508
33.1970821925
33.1711284459
33.1470737519
33.1247562649
33.1040421629
33.0847994848
33.0669083611
33.0502408057
33.0347126246
33.020227679
33.006698837
32.9940430401
32.9821830936
32.9710550093
32.9605937039
32.9507363495
32.9414295628
32.9326187905
32.924270679
32.9163284665
32.9087633833
32.901537523
32.8946151703
32.8879662952
32.8815652778
32.8753876132
32.8694106284
32.8636096536
32.8579737549
32.8524813225
32.8471147575
32.8418600298
32.8366991124
32.8316161959
32.8266148706
32.8216785783
32.8168011093
32.811976283
32.8071902408
32.8024364418
32.797709294
32.7930035111
32.7883198856
32.7836502869
32.7789906232
32.7743385684
32.7696863342
32.765033419
32.7603737507
32.7557035174
32.7510226473
32.7463242041
32.7416068037
32.7368681672
32.7321026304
32.7273081704
32.7224833121
32.7176223706
32.7127257125
32.7077890901
32.7028104459
32.6977896653
32.6927232229
32.6876098581
32.682451158
32.6772425354
32.6719874108
32.6666843058
32.6613351678
32.6559439464
32.6505143589
32.6450556989
32.6395971766
32.6341477159
32.628751899
32.6231462504
32.6177431816
32.6125074952
32.6073449278
32.6023707395
32.597628324
32.5931813611
32.5891020722
32.5854608415
32.5823276358
32.5797588375
32.5777613288
32.576419587
32.5756882241
32.5754409852
32.5754026673
32.5747611931
32.5713533299
32.5599987561
32.5286781113
32.452478882
32.2852017408
31.9499965996
31.3355425983
30.3060504851
28.7319649099
26.5303150719
23.6869162767
20.2623560195
16.3732131203
12.0030703852
6.89051062663
1.70336957455
62.2853394597
58.3519121487
55.4847715211
53.2008496048
51.2988891351
49.6724128049
48.2563879998
47.0087998698
45.9002261185
44.9088058049
44.0176428591
43.213284601
42.4847742118
41.8230340494
41.2204359161
40.6704997065
40.1676676548
39.7071358606
39.2847217629
38.896765268
38.5400419557
38.2117029978
37.9092164887
37.630324614
37.3730092073
37.1354567469
36.9160338919
36.7132690144
36.5258250594
36.3524932841
36.1921719706
36.0438546203
35.9066260187
35.7796438405
35.6621366746
35.5533974116
35.4527719128
35.3596606216
35.2735099895
35.1938062287
35.1200776518
35.0518855619
34.9888205823
34.9305074014
34.8766031836
34.8267825834
34.7805841395
34.7377723215
34.6982018468
34.6616149246
34.6277703328
34.5964553106
34.5674666083
34.5406225615
34.5157575737
34.492707736
34.4713300219
34.451486929
34.4330545374
34.4159005994
34.3999306723
34.385042435
34.3711483043
34.3581589889
34.3459962247
34.3345911197
34.323870288
34.3137793835
34.3042581401
34.2952554281
34.2867307781
34.2786301958
34.2709187265
34.2635512033
34.2565062249
34.2497443906
34.2432367056
34.2369634229
34.230896782
34.2250123277
34.2192952874
34.2137219107
34.208273303
34.2029438394
34.1977249934
34.1925957559
34.1875515626
34.1825789835
34.1776689564
34.1728128215
34.1680021042
34.1632321859
34.1584940748
34.1537785437
34.1490849737
34.1444048064
34.1397329835
34.1350670043
34.1303994749
34.1257288644
34.121049878
34.1163575924
34.1116523869
34.1069277069
34.1021812737
34.0974111913
34.0926120384
34.0877812715
34.0829178841
34.0780163653
34.0730764106
34.0680945603
34.0630684732
34.0579980644
34.0528808866
34.0477146594
34.0425020378
34.0372387165
34.0319284093
34.0265708609
34.0211680696
34.0157252785
34.0102484911
34.0047480013
33.9992448738
33.9937359996
33.988241979
33.9828035332
33.9774366003
33.9722315378
33.966916606
33.9619326484
33.9572606289
33.9529532729
33.9490778854
33.9457217651
33.9429752011
33.9409118511
33.9395267286
33.9388677274
33.9389705784
33.9396402597
33.9404956497
33.9404738791
33.9368343562
33.9233521404
33.8860028335
33.7966079286
33.6042133832
33.2261375286
32.5457911594
31.425347911
29.7388033896
27.4122876307
24.4417349373
20.890423242
16.8716168489
12.3833879741
7.17908154255
1.83465208973
64.0895137725
60.3648128729
57.4608359673
55.1056645866
53.1355773448
51.4512349594
49.9874739298
48.7004137732
47.5588064326
46.5393263875
45.623960432
44.7984194761
44.0511229396
43.3725275947