/*--------------------------------*- C++ -*----------------------------------*\
| =========                 |                                                 |
| \\      /  F ield         | OpenFOAM: The Open Source CFD Toolbox           |
|  \\    /   O peration     | Version:  2106                                  |
|   \\  /    A nd           | Website:  www.openfoam.com                      |
|    \\/     M anipulation  |                                                 |
\*---------------------------------------------------------------------------*/
FoamFile
{
    version     2.0;
    format      ascii;
    arch        "LSB;label=32;scalar=64";
    class       volScalarField;
    location    "0.215";
    object      p;
}
// * * * * * * * * * * * * * * * * * * * * * * * * * * * * * * * * * * * * * //

dimensions      [0 2 -2 0 0 0 0];

internalField   nonuniform List<scalar> 
11200
(
149.75149882
146.822896861
145.709045392
145.181713064
144.814381866
144.51960155
144.257955317
144.009413939
143.76489217
143.519820401
143.271501517
143.018180844
142.758626394
142.491902582
142.217242536
141.933972823
141.641467604
141.339120841
141.02633364
140.702517727
140.367049313
140.019279328
139.658549415
139.284191778
138.895520941
138.491835711
138.072419989
137.636543417
137.183462098
136.712419227
136.222645692
135.713360634
135.183771579
134.63307462
134.060455118
133.4650888
132.846141678
132.202770233
131.534121846
130.839335236
130.117540782
129.367860752
128.589409473
127.781293387
126.942610938
126.072452331
125.169899065
124.234023191
123.263886285
122.258537935
121.217013643
120.138331955
119.021490717
117.865462251
116.669187144
115.431566386
114.151451428
112.827631678
111.458818728
110.043626486
108.580546289
107.067915256
105.503876063
103.88632801
102.212861278
100.480670869
98.6864464057
96.8262279218
94.8952113293
92.8874818439
90.7956502478
88.6103569599
86.3194038987
83.9066049068
81.3498752332
78.6175572553
75.662055347
72.410804564
68.710130847
63.9469485823
147.958457085
146.600282748
145.809310647
145.309295228
144.918305484
144.59442095
144.309897264
144.045291924
143.78980045
143.537274482
143.283886734
143.027123626
142.765248127
142.496983761
142.221330088
141.937452271
141.644612882
141.342129036
141.029342202
140.705590456
140.370223482
140.02256577
139.661973601
139.287778898
138.899285764
138.495787281
138.076564515
137.640885279
137.188004373
136.717164005
136.227594069
135.718512147
135.189123907
134.638629098
134.066215056
133.471057473
132.852322092
132.20916536
131.540734673
130.846168823
130.124598352
129.375145748
128.596925664
127.789044966
126.950602675
126.080689723
125.178388545
124.2427724
123.272904394
122.267836035
121.226605194
120.148233382
119.031722146
117.87604838
116.680158335
115.44296006
114.163313785
112.840019781
111.471803131
110.057294659
108.595007232
107.083305524
105.520365898
103.904125609
102.232217095
100.501899508
98.7099573986
96.8525535575
94.9250486434
92.9217578779
90.8356123263
88.6576556449
86.3763401076
83.9765299723
81.4378301412
78.7317325123
75.8174385972
72.637111676
69.0879547041
64.9750620935
146.963266983
146.309066349
145.756709974
145.319091104
144.947465769
144.625362016
144.336259606
144.066022662
143.805556201
143.549071381
143.292683239
143.033710077
142.770239855
142.500845596
142.224406221
141.939993098
141.646796562
141.344077959
141.03113891
140.707302467
140.371906471
140.024311279
139.663772916
139.289637775
138.901213865
138.497791717
138.078650092
137.643055713
137.190263072
136.71951461
136.230041117
135.721062417
135.191787533
134.64140904
134.069109256
133.47406619
132.85544672
132.212407863
131.544097863
130.849656338
130.128214693
129.378896353
128.600817067
127.793085005
126.954800757
126.085057159
125.18293895
124.247522235
123.277873619
122.273048905
121.232091256
120.154028662
119.037870586
117.88260359
116.687185757
115.450539607
114.171543073
112.849018235
111.481717157
110.068303921
108.607331497
107.097212779
105.536184149
103.922276415
102.253252362
100.526518761
98.7390340765
96.8871997905
94.966701773
92.9723013995
90.8975489734
88.7343816206
86.4727043485
84.0996011441
81.5983505376
78.9470912651
76.1178472996
73.0789981803
69.7945583573
66.2414913827
146.413505992
146.050124446
145.650225704
145.281233987
144.943615438
144.63551051
144.350144057
144.079436421
143.81706026
143.558388619
143.300003474
143.039373284
142.774598212
142.504210988
142.227035536
141.942089333
141.648516026
141.345539362
141.032432126
140.708494304
140.373034885
140.025363659
139.664839445
139.290739162
138.902352194
138.498970949
138.079873938
137.644326638
137.191582413
136.720882692
136.231457089
135.722523636
135.193289643
134.642953413
134.07070467
133.47571799
132.857161137
132.214191899
131.545957547
130.851598136
130.130245886
129.38102524
128.603053386
127.795440369
126.957289091
126.087695259
125.185747189
124.25052537
123.281101766
122.276538664
121.235887072
120.158184564
119.042452301
117.887691158
116.69287683
115.456953651
114.178826642
112.857351173
111.491320227
110.079448166
108.620353196
107.112538621
105.55434278
103.943906909
102.279129463
100.557611601
98.7765782227
96.9327774289
95.0223561867
93.0407046022
90.9822656731
88.8403099023
86.6066055129
84.2711103766
81.8217349442
79.2443799233
76.5242980964
73.6517789616
70.6304164088
67.497382851
146.079458304
145.847662613
145.546249419
145.235270937
144.930429381
144.6384033
144.359424443
144.090294582
143.827330133
143.567240973
143.307266685
143.045169849
142.779157936
142.507781879
142.229844995
141.944330317
141.650345184
141.347080326
141.033780345
140.709722543
140.374201969
140.026522272
139.665987138
139.291886051
138.903521973
138.50017869
138.081129471
137.645637369
137.1929544
136.722321425
136.232968137
135.724113246
135.194964569
134.644718743
134.072561795
133.477670051
132.859208983
132.216336407
131.548203011
130.853949245
130.132709864
129.383611626
128.605774159
127.798310303
126.960326192
126.090921376
125.189188784
124.254214498
123.285077204
122.280847525
121.240586998
120.163345834
119.048160554
117.894050804
116.700015154
115.465025428
114.188018935
112.867891922
111.503486832
110.093583477
108.636879773
107.13196331
105.577297619
103.97118784
102.31174042
100.596813656
98.8239602129
96.9903582484
95.0927282676
93.1272360966
91.089385034
88.9739104486
86.7747038728
84.484846426
82.0969169519
79.6039057412
77.0016155946
74.294487584
71.5038810637
68.6804919089
145.87606607
145.7001638
145.458968229
145.191641031
144.914452052
144.637811133
144.366118237
144.099612864
143.836843476
143.575830007
143.314537536
143.051099002
142.783888938
142.511516531
142.23278891
141.946668383
141.652232885
141.348642961
141.03511579
140.710905486
140.375288582
140.027553181
139.666989919
139.292889152
138.904540426
138.501223094
138.082207764
137.646755434
137.194116607
136.723530887
136.234226973
135.725422749
135.196325463
134.646131887
134.074028722
133.479193287
132.860794121
132.217990875
131.549934762
130.855770276
130.134633004
129.385650416
128.607944191
127.800629759
126.962816619
126.093608869
125.192105085
124.257398268
123.288575674
122.284718191
121.244899257
120.168183871
119.053626584
117.900269019
116.707136704
115.473235255
114.197546492
112.879018582
111.516559787
110.109022295
108.655189327
107.15376818
105.603375459
104.002495071
102.349459988
100.642420521
98.8793059695
97.0577827687
95.1752111449
93.2286054442
91.2146096418
89.1295121549
86.9693469038
84.7301727288
82.4087049266
80.0035921328
77.5179027462
74.9637924968
72.3682125302
69.7782645003
145.752949512
145.597341668
145.391039069
145.154475654
144.898998737
144.635717117
144.371101382
144.107589899
143.845453438
143.583864156
143.321488004
143.056848459
142.788515754
142.515181372
142.235673178
141.948943606
141.654047711
141.350119601
141.036351169
140.711974414
140.376247447
140.028443825
139.667844762
139.293732811
138.905389233
138.502088401
138.08309806
137.647677011
137.195074225
136.724528446
136.235267984
135.726510706
135.197464115
134.647325735
134.075283489
133.480515586
132.862190953
132.219470099
131.551505174
130.857439847
130.136409614
129.387545784
128.609974489
127.802815312
126.965182606
126.096185767
125.194929752
124.260515334
123.292039214
122.288593807
121.249266642
120.173140061
119.059289796
117.906783302
116.714677445
115.482015183
114.207820916
112.891099348
111.53082633
110.125939611
108.675338754
107.177864154
105.632286646
104.03729362
102.39147337
100.69329679
98.9410997044
97.1330684344
95.2672334902
93.3414806652
91.3535959009
89.3013732922
87.182834005
84.9966459382
82.7428787549
80.4242913197
78.0484347907
75.630911389
73.1986025848
70.7908719963
145.678870013
145.528859686
145.342103338
145.125996807
144.88628926
144.633466234
144.374827072
144.114086576
143.852717308
143.590792848
143.327572298
143.061932211
142.792632083
142.518450708
142.238244611
141.950963964
141.655647252
141.351407079
141.037413803
140.712880159
140.377048112
140.029178311
139.668541868
139.294413317
138.906069061
138.50277848
138.083806546
137.648409998
137.195836446
136.725323818
136.236100046
135.727382932
135.198380171
134.648289541
134.076299132
133.481587628
132.863324779
132.220671577
131.552781172
130.858800147
130.137870112
129.389124562
128.611690293
127.804690405
126.967243926
126.098466111
125.197469021
124.263362025
123.295252253
122.292244955
121.253443624
120.177949303
119.064860442
117.913272206
116.722275374
115.490954973
114.218388219
112.903642669
111.545768173
110.143798086
108.696740702
107.203576227
105.663250237
104.074665905
102.436678867
100.748093821
99.0076654372
97.2141079655
95.3661202221
93.4624375612
91.5019280653
89.4837619016
87.4076940902
85.2745380191
83.0869085751
80.8503414151
78.5748764577
76.2771238424
73.9817711426
71.7208348978
145.636593764
145.487145892
145.310729663
145.106990492
144.877456633
144.631746861
144.377385275
144.11874508
143.858036243
143.595939703
143.332139511
143.065777784
142.795763006
142.520946567
142.240211767
141.952510432
141.656870502
141.352389367
141.038221587
140.713565503
140.377650897
140.029728549
139.669061873
139.294920389
138.906573029
138.503289169
138.084330662
137.648952492
137.196401291
136.72591444
136.236719591
135.728034561
135.19906727
134.64901589
134.077069073
133.482406321
132.86419848
132.221608325
131.553791398
130.859896381
130.139063647
129.390430293
128.613128169
127.806284773
126.969024175
126.100467813
125.199735319
124.265945348
123.298216345
122.295667131
121.257417428
120.182588391
119.070303007
117.919686265
116.729865126
115.499968316
114.229125805
112.916468044
111.561127332
110.162234371
108.718917801
107.230303961
105.695516966
104.113679997
102.48391998
100.805376622
99.0772195756
97.2986776729
95.4690881901
93.587978495
91.6551943474
89.6711027347
87.6369000994
85.55507902
83.4300877241
81.2692245723
79.0837442635
76.8900649149
74.710239597
72.5704573501
145.61731738
145.46743933
145.295475746
145.097539375
144.872976938
144.630856576
144.378719976
144.121209403
143.860880388
143.598717
143.334623923
143.067885397
142.797491849
142.522335839
142.241316742
141.953388385
141.657573676
141.352962161
141.038700049
140.713977989
140.378019214
140.030069184
139.669387085
139.295239136
138.906892917
138.503615067
138.084666484
137.64930143
137.196766096
136.726297765
136.237124068
135.728463036
135.199522984
134.649502629
134.077591369
133.482969659
132.864809513
132.222275025
131.554522915
130.860703132
130.13996059
129.391434721
128.614260637
127.807570152
126.970492669
126.102156107
125.201687982
124.268216541
123.300871843
122.298786795
121.261098257
120.186948168
119.075484701
117.925863433
116.737248544
115.508814178
114.239745952
112.929241276
111.576513079
110.180792832
108.741328337
107.257392838
105.72828988
104.153361575
102.532002053
100.863677165
99.1479545655
97.3845475201
95.5733815653
93.714694082
91.8091782572
89.8582028392
87.8641110482
85.8306571983
83.7635505531
81.6711395245
79.565152639
77.4613513537
75.3794351445
73.3413395423
145.617319968
145.467455379
145.29550272
145.09757556
144.873021572
144.630908841
144.37877896
144.121274283
143.86095046
143.598791678
143.334702738
143.067967992
142.797577962
142.522425291
142.241409425
141.95348424
141.657672692
141.353064373
141.038805545
140.71408692
140.37813181
140.030185772
139.669508092
139.295365108
138.907024571
138.503753138
138.084811883
137.649455266
137.196929737
136.726472689
136.237312309
135.728667054
135.199745768
134.64974781
134.077863335
133.483273706
132.865152018
132.222663732
131.55496739
130.86121533
130.140554529
129.392127422
128.615072858
127.808527131
126.971625035
126.103501047
125.203290679
124.270131899
123.303166523
122.301541713
121.264411632
120.190939193
119.080298012
117.931674511
116.744270384
115.51730506
114.250018976
112.941676052
111.591571203
110.199033782
108.763431509
107.284181739
105.760763273
104.192730269
102.579732627
100.921542479
99.2180924279
97.469532313
95.6763090075
93.8392749457
91.9598736042
90.0403724248
88.083901471
86.0950880701
84.0804490372
82.0488888133
80.012198168
77.9854016586
75.986410997
74.0343294496
145.636601587
145.487194423
145.310811192
145.107099793
144.877591394
144.631904415
144.377562857
144.11894024
143.858246888
143.596164085
143.332376236
143.066025782
142.796021503
142.521215031
142.240489869
141.952798006
141.657167519
141.352695939
141.038537979
140.71389217
140.377988532
140.030078116
139.669424624
139.295297976
138.906967499
138.503702719
138.084765967
137.64941279
137.196890519
136.726437384
136.237282185
135.728644067
135.199732532
134.649747673
134.07788048
133.483313279
132.86522033
132.222768484
131.555117956
130.861423107
130.140833349
129.392494129
128.615547949
127.809135498
126.972396893
126.104473104
125.204507556
124.271647789
123.305047202
122.303867013
121.267278405
120.194464922
119.084625177
117.93697588
116.750755466
115.525227897
114.259687633
112.95346435
111.605929696
110.216507534
108.784685099
107.310015532
105.792142052
104.230816163
102.625922977
100.977519749
99.2859019654
97.5516402303
95.7756243765
93.9592318769
92.1044259361
90.2139248382
88.2916896661
86.3429760476
84.3747780498
82.3962521978
80.41907616
78.4576609244
76.5287322707
74.6497413253
145.678883272
145.528941834
145.342241075
145.126181056
144.886515964
144.633730782
144.375124763
144.114413298
143.853069577
143.591167773
143.327967574
143.062346077
142.793063261
142.518898327
142.238708129
141.951443112
141.656141997
141.351917618
141.037940592
140.713423967
140.377610118
140.029760124
139.669145476
139.295041526
138.906724861
138.503465658
138.084529537
137.649174111
137.196648147
136.72619103
136.237032481
135.728392464
135.199481261
134.649499741
134.077639747
133.483084569
132.865009604
132.222583063
131.554966792
130.861317124
130.140785854
129.392521299
128.615669453
127.809375241
126.972783931
126.105042773
125.205302814
124.272720801
123.306461278
122.305698974
121.269621425
120.197431974
119.088353194
117.941630795
116.756538325
115.532382132
114.268507868
112.964307541
111.619228064
110.232781747
108.804559528
107.334248929
105.82165016
104.266703765
102.669523963
101.030420656
99.3499415749
97.6289611204
95.8687987459
94.0712657076
92.2388151557
90.3747100928
88.4832582312
86.5700626992
84.6423437368
82.7092753581
80.7823015925
78.8753737855
77.004632013
75.1870012505
145.752968598
145.59745959
145.391236096
145.154738247
144.899320765
144.63609182
144.371522004
144.108050618
143.845949389
143.584391335
143.32204323
143.057429308
142.789120468
142.515808749
142.236322464
141.949614425
141.654740014
141.350833658
141.037087598
140.712734263
140.377032308
140.029255948
139.668687018
139.294608837
138.906303202
138.50304545
138.084104274
137.648739657
137.196202164
136.725732551
136.236561618
135.727910236
135.198989509
134.649001097
134.077137649
133.482583385
132.864514771
132.222101315
131.554506429
130.860888333
130.14040107
129.392195658
128.615421354
127.809227042
126.972762814
126.105181814
125.205642215
124.273309389
123.307358334
122.306976412
121.271366465
120.199750291
119.091372879
117.945506975
116.761458809
115.538574277
114.276246625
112.973925293
111.631126677
110.247446495
108.822574501
107.356315004
105.848606478
104.299548123
102.70943201
101.078801169
99.4084883218
97.6996753879
95.9539733915
94.1735249586
92.3611284827
90.5203840865
88.6558726578
86.7733685076
84.880101444
82.9850560282
81.0993134451
79.2364462963
77.4124711616
75.6448068356
145.876091673
145.700321216
145.45922975
145.191987745
144.914875267
144.638301613
144.36666703
144.100212423
143.837487582
143.576513591
143.315256601
143.051850512
142.78467069
142.512327014
142.23362717
141.947533925
141.6531256
141.349563094
141.036063944
140.71188267
140.37629621
140.028593386
139.668067449
139.294010131
138.905709629
138.502446313
138.083492304
137.648110134
137.195552277
136.725060925
136.235868
135.727195289
135.198254701
134.648248673
134.076370656
133.481805712
132.863731245
132.221317891
131.553730425
130.860128749
130.139668998
129.391504732
128.614788256
127.808672107
126.972310791
126.104862786
125.205492712
124.273373758
123.307690405
122.307641475
121.272443629
120.201335355
119.093581822
117.948480201
116.765366111
115.543621
114.282680984
112.98204695
111.641296706
110.260099602
108.838233691
107.375606016
105.872277986
104.328495924
102.744726248
101.121697074
99.4604516182
97.7624121085
96.0294532222
94.2639877473
92.4690704325
90.6485186533
88.8070555547
86.9504713819
85.0858269787
83.2217154569
81.3686510764
79.539715366
77.7509426282
76.0210135029
146.079491123
145.847864412
145.546581945
145.235708789
144.930960615
144.639015777
144.360106873
144.091037698
143.828126431
143.568084428
143.308152589
143.046094655
142.780119103
142.508777708
142.230874496
141.945393092
141.651441326
141.34821029
141.034944811
140.710922521
140.375439114
140.027797975
139.667303759
139.293257271
138.904951936
138.501673183
138.082696564
137.647287089
137.194699031
136.724175926
136.234950722
135.726246023
135.197274491
134.647239276
134.075334592
133.480746384
132.862653062
132.220226367
131.552632267
130.859031983
130.138583196
129.390441508
128.613761804
127.807699801
126.971413922
126.104067382
125.204830519
124.272883425
123.307418882
122.307645796
121.272792918
120.202113485
119.094890367
117.950442204
116.76813043
115.547367513
114.287625864
112.988450644
111.649472907
110.270425284
108.851160974
107.391676337
105.892137487
104.352911999
102.774606367
101.158110141
99.5046466017
97.8158322239
96.0937458685
94.3410051602
92.5608515288
90.7572424395
88.9349515754
87.0996752217
85.2581638855
83.4184101764
81.5900335897
79.785186732
78.0193849445
76.3124841763
146.413546054
146.050374321
145.650631772
145.281763393
144.944252282
144.636239263
144.350950983
144.080310585
143.817992975
143.559373016
143.301034254
143.04044651
142.775711133
142.505361904
142.228223724
141.943315032
141.649780482
141.346844806
141.033781359
140.709891144
140.374488562
140.02689014
139.666411918
139.292361251
138.904037942
138.500731706
138.081721181
137.646273671
137.193645025
136.723079839
136.233811873
135.725064389
135.196050531
134.645973862
134.074029019
133.479402575
132.861273868
132.218815637
131.551195008
130.857574865
130.137114891
129.388972256
128.612303968
127.806268371
126.970027046
126.102747019
125.203603289
124.271781661
123.306481838
122.306921202
121.272338134
120.201997941
119.095197911
117.951274142
116.76960906
115.549640564
114.29087321
112.99288921
111.655363358
110.278080476
108.860955624
107.404057861
105.907638298
104.37216289
102.798350748
101.187218557
99.5401311344
97.858858523
96.1456383681
94.4032426815
92.6350469968
90.8450976
89.0381701573
87.2198152963
85.3963961159
83.5751275949
81.7643088074
79.9743160237
78.2183594458
76.5150819
146.963319085
146.309378456
145.757199615
145.319717429
144.948209177
144.626203704
144.337183645
144.067016682
143.806610488
143.550178279
143.293836784
143.034905708
142.771474149
142.502116066
142.225711178
141.941331691
141.64816916
141.345487069
141.032589499
140.70880105
140.373453701
140.0258773
139.665392969
139.291320533
138.902964526
138.499617906
138.080561849
137.645065505
137.192386252
136.721769675
136.232450254
135.72365188
135.194588264
134.644463522
134.072472778
133.477802744
132.859631874
132.217134196
131.549477765
130.855825944
130.135339054
129.387176395
128.61049687
127.804460954
126.968232811
126.100982576
125.201888991
124.270142268
123.304947351
122.30552767
121.271130033
120.201029288
119.094534147
117.95099442
116.769808998
115.550435214
114.292399729
112.995313109
111.65888374
110.282936181
108.867432417
107.412496835
105.918445276
104.385819038
102.815423545
101.208372587
99.5661377144
97.8906027033
96.1841208467
94.4495778508
92.6904469712
90.9108379502
89.115523249
87.3099311226
85.5000777631
83.6923490874
81.8934019274
80.1107882268
78.3516126276
76.62454299
147.958556621
146.600740364
145.809992828
145.310149141
144.919308072
144.595551612
144.311139234
144.046632329
143.791229223
143.538783641
143.28546994
143.028775786
142.766964962
142.498761393
142.223164606
141.939339353
141.646547302
141.344103895
141.031351906
140.707642759
140.372317023
140.024725346
139.664215834
139.290105145
138.90170157
138.498301441
138.079187597
137.643628129
137.190882161
136.720196787
136.230807102
135.721937318
135.192801418
134.642603798
134.07053995
133.475797514
132.857557822
132.214993826
131.547273686
130.853561689
130.133019278
129.384806284
128.608082606
127.80201011
126.965754697
126.098488631
125.199393189
124.267661634
123.302502668
122.303144351
121.268838539
120.198866378
119.092544218
117.949231163
116.768337392
115.549334089
114.291765222
112.995259717
111.659548778
110.284484243
108.870060301
107.416438992
105.923979751
104.393273709
102.825182924
101.220884623
99.5819203755
97.9102477974
96.208294005
94.4790331244
92.7260128082
90.9534011739
89.1660029387
87.369235406
85.5689952241
83.7711480108
81.9812221403
80.2039770404
78.434214006
76.6423643697
149.751665115
146.823566947
145.710038207
145.18296642
144.815865571
144.52129114
144.259832433
144.011465225
143.767107886
143.522193585
143.274027498
143.020856943
142.761451783
142.494878315
142.220371645
141.937260388
141.644920675
141.34274784
141.030139354
140.706487813
140.371187996
140.023600118
139.663055346
139.288888462
138.900417286
138.496942563
138.077750416
137.642115874
137.189296486
136.718537922
136.229075321
135.72013305
135.190925156
134.640656054
134.068521252
133.47370812
132.855396825
132.212761349
131.544970469
130.851188826
130.130578242
129.38229916
128.605512215
127.799380073
126.963069555
126.095754055
125.19661622
124.264850871
123.299668578
122.300299726
121.265998949
120.196050693
119.089775363
117.946536832
116.76575093
115.54689538
114.289521741
112.993269131
111.657880454
110.283221151
108.869301577
107.416302868
105.924607091
104.394831825
102.827869888
101.224933587
99.587604459
97.9178902602
96.2182869076
94.4918006068
92.7420364935
90.9732315211
89.190274858
87.3986855444
85.6045108935
83.8142515197
82.0343332175
80.2695547681
78.499494748
76.5995985573
56.5518696897
52.9998975104
50.608584343
48.6515053963
46.9800440501
45.5240100386
44.2393729796
43.0963550587
42.0731971402
41.1530624751
40.3224617202
39.5703213207
38.8873916049
38.2658488949
37.6990112623
37.1811271229
36.7072116615
36.2729192496
35.8744403278
35.5084177209
35.1718783649
34.8621775837
34.5769529484
34.3140873056
34.0716779852
33.8480086611
33.6415288617
33.4508357643
33.274656215
33.1118318115
32.9613069541
32.8221192499
32.6933873794
32.5743011593
32.4641177793
32.3621507477
32.267762992
32.1803607646
32.0993983141
32.0244485484
31.9553132777
31.8914268166
31.8323568209
31.7776808941
31.7270713965
31.6802287633
31.6368578792
31.5967242849
31.5595276674
31.5251049988
31.4932179717
31.4636754215
31.4362858487
31.4108760567
31.3872917612
31.3653835882
31.3450122974
31.3260578997
31.3084034239
31.2919390224
31.2765672261
31.2621964424
31.2487410454
31.2361217667
31.2242662232
31.2131086474
31.2025862314
31.1926424137
31.1832259928
31.1742894768
31.1657891138
31.1576842079
31.149937481
31.1425141166
31.1353830108
31.1285168006
31.1218914921
31.1154917704
31.1092884657
31.1032624096
31.0973981913
31.0916772076
31.0860815129
31.080598089
31.0752198337
31.0699482304
31.0647593795
31.0596397182
31.0545790783
31.0495687088
31.044601433
31.039671616
31.0347743613
31.029905104
31.0250596591
31.0202338802
31.0154236886
31.0106247899
31.0058328794
31.0010440267
30.9962554994
30.9914655245
30.9866719206
30.981873125
30.9770682409
30.9722562699
30.967435769
30.9626065932
30.9577704093
30.952928863
30.9480834145
30.9432352001
30.9383848026
30.9335324077
30.9286782995
30.9238248728
30.9189765338
30.9141401861
30.9093242704
30.9045389655
30.8997953564
30.8951044495
30.8904789379
30.8859344069
30.8814881836
30.8771616825
30.8729825037
30.8689841581
30.8652081759
30.8617047344
30.8585320841
30.8557566719
30.8534574224
30.8517304875
30.8506892298
30.8504650784
30.8512066184
30.8530952639
30.8562936698
30.8609925129
30.8678564214
30.8768568759
30.8883086805
30.9020776636
30.9170211034
30.9290364506
30.9285055318
30.8927855129
30.7800182913
30.5185520316
30.0021319627
29.0962929839
27.6656065234
25.6144785838
22.9158943421
19.6273196945
15.8711279534
11.6218821716
6.60536415793
1.57173533921
59.733365222
55.680501341
52.9686875296
50.8167297968
49.0154163606
47.4663176514
46.1111696485
44.9126617086
43.8445334322
42.8870612637
42.0248262843
41.2454184277
40.5386411929
39.8959807576
39.3102506048
38.7753163493
38.2859056872
37.8374483472
37.425960274
37.0479446251
36.700316162
36.3803382779
36.0855701621
35.8138321133
35.5631644901
35.3318035021
35.118156533
34.9207850958
34.7383822349
34.5697617709
34.4138406844
34.2696356673
34.1362443565
34.012841755
33.898673296
33.7930476085
33.6953309832
33.6049450173
33.5213554347
33.4440416569
33.3724032416
33.3061257066
33.2447952397
33.1880342637
33.1355182613
33.0869261518
33.041955486
33.0003494284
32.9618069482
32.926137369
32.893091464
32.862470721
32.8340876408
32.807765114
32.7833484894
32.7606784109
32.7396206115
32.7200424086
32.7018188258
32.6848365313
32.6689938758
32.6541951906
32.6403509198
32.6273824644
32.6152140893
32.6037734018
32.5929947826
32.5828201111
32.5731957708
32.5640737175
32.5554062925
32.5471530202
32.5392755248
32.5317377301
32.5245046962
32.5175465869
32.5108352308
32.5043381573
32.4980434028
32.4919292262
32.4859774353
32.4801701631
32.4744934371
32.4689294245
32.4634636596
32.4580855935
32.452789455
32.4475637216
32.4424006886
32.4372905215
32.4322268665
32.4272026107
32.4222139822
32.4172547526
32.4123217126
32.4074099144
32.4025148607
32.397632824
32.3927582526
32.3878883524
32.3830187667
32.3781483154
32.3732740238
32.3683944212
32.3635071193
32.3586119963
32.3537063201
32.3487897983
32.3438637754
32.3389289069
32.3339864611
32.329036521
32.3240799438
32.3191151019
32.3141431966
32.3091640843
32.3041826086
32.2992048403
32.2942386524
32.2892941879
32.2843810998
32.2795102032
32.2746956202
32.2699505723
32.2652937538
32.2607459041
32.2563359511
32.2520970603
32.2480723457
32.2443122306
32.2408737627
32.2378288207
32.2352586447
32.233260806
32.2319522992
32.2314705629
32.2319736879
32.2336618478
32.2366702338
32.2413115648
32.2478818732
32.2566079663
32.267682764
32.2807383839
32.2941300653
32.3027518987
32.2952194197
32.2456697386
32.1075999063
31.8033410334
31.2207266434
30.2222083784
28.6751043395
26.4932838361
23.6615695305
20.2421301805
16.3553628134
11.9910126092
6.88890747748
1.70336544668
61.9409457909
58.0074206245
55.1404766477
52.856999938
50.9557208845
49.3301336159
47.9151495904
46.6686746682
45.5612006548
44.5707777007
43.6804330107
42.8766514765
42.1484391563
41.4866985932
40.8838097717
40.3333136529
39.8296906608
39.3681805603
38.9446502984
38.555485106
38.1975047157
37.867894801
37.5641503917
37.2840372558
37.0255488691
36.7868818425
36.5664085951
36.3626587141
36.1742975872
36.000113905
35.8390028418
35.6899591772
35.552060339
35.4244639962
35.3063955577
35.1971428892
35.0960493494
35.0025087638
34.9159613739
34.8358987717
34.7618141784
34.6931400816
34.6295711891
34.570773105
34.5163866871
34.4660721847
34.4195216175
34.3764514964
34.3365834165
34.2996878687
34.2655292354
34.2338882639
34.2045688005
34.1773918613
34.1521900739
34.1288008419
34.1070743481
34.0868811532
34.068095253
34.050601031
34.0342916303
34.0190676284
34.0048357875
33.9915106724
33.979013472
33.9672736116
33.956223646
33.9458024476
33.9359521967
33.926622582
33.9177656202
33.9093386105
33.9012994814
33.893606141
33.8862295042
33.879141325
33.8723154475
33.8657238659
33.8593447665
33.853155097
33.8471368782
33.8412704651
33.8355401972
33.8299295184
33.8244273863
33.8190198547
33.8136973372
33.8084472073
33.8032610614
33.7981287343
33.7930435478
33.7879977226
33.782987041
33.7780051148
33.77304798
33.7681108004
33.7631888382
33.7582781258
33.7533731144
33.7484709877
33.7435669076
33.7386596468
33.7337456051
33.7288232117
33.7238898206
33.7189444688
33.7139854989
33.7090112372
33.7040225017
33.6990196231
33.6940034945
33.6889734536
33.683930084
33.678871499
33.6737984791
33.6687108386
33.663612478
33.6585088754
33.6534061201
33.6483133806
33.6432412822
33.6381998779
33.6332013777
33.6282590661
33.6233925453
33.6186217075
33.6139762107
33.6094901846
33.6052067301
33.6011751994
33.5974555725
33.5941164682
33.5912457474
33.5889404183
33.5873186809
33.586524686
33.5867225247
33.5881643907
33.5908082826
33.5951332558
33.601303353
33.6095556526
33.619947371
33.6318585051
33.6431101127
33.6475172236
33.6319638522
33.5673175947
33.4026855155
33.0548629319
32.4066048984
31.3182477704
29.6603332995
27.3555129313
24.3986832778
20.8548901362
16.8412144381
12.3617492603
7.17138440517
1.8325299046
63.7452424393
60.0205467975
57.1168229493
54.7621543257
52.7928008482
51.1093858037
49.6466860581
48.3607397904
47.2202146776
46.2016981616
45.2871045586
44.4620862684
43.7150301028
43.0363772048
42.4181615807