/*--------------------------------*- C++ -*----------------------------------*\
| =========                 |                                                 |
| \\      /  F ield         | OpenFOAM: The Open Source CFD Toolbox           |
|  \\    /   O peration     | Version:  2106                                  |
|   \\  /    A nd           | Website:  www.openfoam.com                      |
|    \\/     M anipulation  |                                                 |
\*---------------------------------------------------------------------------*/
FoamFile
{
    version     2.0;
    format      ascii;
    arch        "LSB;label=32;scalar=64";
    class       surfaceScalarField;
    location    "0.26";
    object      phi;
}
// * * * * * * * * * * * * * * * * * * * * * * * * * * * * * * * * * * * * * //

dimensions      [0 3 -1 0 0 0 0];

oriented        oriented;

internalField   nonuniform List<scalar> 
22100
(
3.38461206044e-05
1.6153879387e-05
2.24572107857e-05
1.13889101921e-05
1.62585544586e-05
6.19865662881e-06
1.27977780192e-05
3.4607767407e-06
1.08046446753e-05
1.99313364093e-06
9.60459217698e-06
1.20005279357e-06
8.85132494571e-06
7.53267529554e-07
8.36435665435e-06
4.86968585027e-07
8.04433929253e-06
3.20017652694e-07
7.83284501269e-06
2.11494569676e-07
7.69340235783e-06
1.39442942445e-07
7.60224596787e-06
9.11566741146e-08
7.54348367055e-06
5.87625819898e-08
7.50634722169e-06
3.71367278816e-08
7.48350816191e-06
2.28393366544e-08
7.46998777334e-06
1.35206677648e-08
7.462423565e-06
7.56447986323e-09
7.45855593432e-06
3.8678870601e-09
7.45683727991e-06
1.71889178532e-09
7.45643104421e-06
4.06494730881e-10
7.45678123499e-06
-3.49931947884e-10
7.45746777416e-06
-6.86283925345e-10
7.45822647515e-06
-7.5844891732e-10
7.4589521401e-06
-7.2541427367e-10
7.45959681233e-06
-6.44425869191e-10
7.46014111153e-06
-5.44059911768e-10
7.46058359697e-06
-4.42250841627e-10
7.46093272381e-06
-3.4889512545e-10
7.4612013956e-06
-2.68445840614e-10
7.4614036969e-06
-2.02082390942e-10
7.46155300106e-06
-1.49093022882e-10
7.46166101691e-06
-1.07814341915e-10
7.46173747193e-06
-7.62589344196e-11
7.46179049771e-06
-5.2834371145e-11
7.46182404421e-06
-3.33695374887e-11
7.46184310197e-06
-1.88929357391e-11
7.46185244074e-06
-9.17799745327e-12
7.46185550239e-06
-2.90282886587e-12
7.46185423002e-06
1.41974875685e-12
7.46184976069e-06
4.60160622201e-12
7.46184303136e-06
6.84955901275e-12
7.461834651e-06
8.49686961436e-12
7.46182498804e-06
9.77681554906e-12
7.46181421353e-06
1.08817502298e-11
7.46180232871e-06
1.19839821586e-11
7.46178920971e-06
1.32113188458e-11
7.46177463065e-06
1.46643843639e-11
7.46175826763e-06
1.64378025278e-11
7.46173969567e-06
1.86362732037e-11
7.4617183711e-06
2.13763744273e-11
7.46169367966e-06
2.47260237263e-11
7.46166491759e-06
2.87751676155e-11
7.46163128926e-06
3.36163696991e-11
7.46159192751e-06
3.93169994342e-11
7.46154594874e-06
4.5893945965e-11
7.46149252912e-06
5.32926508455e-11
7.46143096583e-06
6.13962861359e-11
7.46136111895e-06
6.9643349343e-11
7.46128369242e-06
7.71925470529e-11
7.46120111368e-06
8.23267482117e-11
7.46111959349e-06
8.12661036391e-11
7.46105139899e-06
6.79419346233e-11
7.46100431632e-06
4.68284113683e-11
7.46099742739e-06
6.66084977074e-12
7.4610666268e-06
-6.93752895371e-11
7.46127012589e-06
-2.03628077176e-10
7.46170238939e-06
-4.32344518599e-10
7.46251348638e-06
-8.11102969464e-10
7.46393870691e-06
-1.42514270414e-09
7.46633369341e-06
-2.39484100011e-09
7.47014836282e-06
-3.8144755187e-09
7.47659324323e-06
-6.44463550664e-09
7.48736228981e-06
-1.07687447547e-08
7.50553911086e-06
-1.81764831001e-08
7.5387343988e-06
-3.31949757675e-08
7.60797784239e-06
-6.92432036369e-08
7.77471876912e-06
-1.66740724483e-07
8.22985818728e-06
-4.55139197247e-07
9.69826448671e-06
-1.46840623494e-06
-5.45476557478e-06
1.51530301709e-05
5.02175951723e-05
1.5936284593e-05
4.42441125644e-05
1.7362393424e-05
3.77795029993e-05
1.26632667424e-05
3.2646146063e-05
8.59413421682e-06
2.89380944824e-05
5.70118576051e-06
2.635962461e-05
3.77852319941e-06
2.45875207274e-05
2.52537194525e-06
2.33734791975e-05
1.70101064333e-06
2.25435306799e-05
1.14996669185e-06
2.19782225328e-05
7.76803233287e-07
2.15955205522e-05
5.22145439131e-07
2.13387445372e-05
3.47933196097e-07
2.11685035647e-05
2.2900405082e-07
2.10573465025e-05
1.48294276649e-07
2.0986159138e-05
9.40271880286e-08
2.09416873086e-05
5.79929812318e-08
2.09148060384e-05
3.44462234629e-08
2.08993074686e-05
1.93669283961e-08
2.0891084269e-05
9.942576355e-09
2.08872844967e-05
4.20673389106e-09
2.08862160179e-05
7.18995767841e-10
2.08864621837e-05
-9.32010914925e-10
2.08873340691e-05
-1.62988966497e-09
2.08884740056e-05
-1.86490785742e-09
2.08896477591e-05
-1.81774564314e-09
2.08907311643e-05
-1.62704044081e-09
2.08916691644e-05
-1.37983391437e-09
2.08924470895e-05
-1.12641074254e-09
2.08930727001e-05
-8.93662223e-10
2.08935652124e-05
-6.94218332765e-10
2.08939493968e-05
-5.32911077434e-10
2.08942512898e-05
-4.09351354069e-10
2.0894462594e-05
-2.87226032641e-10
2.08946099675e-05
-1.99887961318e-10
2.08947106346e-05
-1.33728637578e-10
2.08947762944e-05
-8.42587105052e-11
2.08948171141e-05
-4.97236394556e-11
2.08948412632e-05
-2.67989827257e-11
2.08948535598e-05
-1.06376770008e-11
2.08948569414e-05
1.44986263301e-12
2.0894853821e-05
1.01889387077e-11
2.08948458635e-05
1.66593921692e-11
2.08948342097e-05
2.1622866932e-11
2.08948195742e-05
2.56999245737e-11
2.08948023235e-05
2.94048116247e-11
2.08947825866e-05
3.30987698164e-11
2.08947603431e-05
3.7037783656e-11
2.08947354633e-05
4.14263406688e-11
2.08947077353e-05
4.64546530647e-11
2.08946768777e-05
5.22941257324e-11
2.08946426593e-05
5.8963629743e-11
2.08946049221e-05
6.64812080534e-11
2.08945636601e-05
7.4787827143e-11
2.08945191616e-05
8.36559554842e-11
2.08944722629e-05
9.2558817379e-11
2.08944247484e-05
1.00504077923e-10
2.08943798408e-05
1.05937952666e-10
2.08943434542e-05
1.05607542092e-10
2.08943250514e-05
9.51416653793e-11
2.08943398042e-05
6.71163499142e-11
2.08944143223e-05
6.29603291916e-12
2.08945976885e-05
-1.1584800134e-10
2.08949581138e-05
-3.13970969342e-10
2.08956138404e-05
-6.49373254748e-10
2.08966743729e-05
-1.13013916788e-09
2.08983148974e-05
-1.84428894212e-09
2.09008934176e-05
-3.01085779234e-09
2.09049579855e-05
-4.8755099983e-09
2.09113780659e-05
-7.84494730818e-09
2.09215779531e-05
-1.25943730624e-08
2.0938048977e-05
-2.0285068335e-08
2.09649400688e-05
-3.33352065673e-08
2.10091946221e-05
-5.50227012601e-08
2.10839947438e-05
-9.29760006362e-08
2.12152844916e-05
-1.64484188876e-07
2.14560092778e-05
-3.09967534279e-07
2.19141088925e-05
-6.24839953499e-07
2.28016891973e-05
-1.34271917802e-06
2.44469514486e-05
-3.11366824033e-06
-7.0435086616e-06
2.60356928331e-05
5.35171056349e-05
1.24191792671e-05
5.29349691851e-05
1.79445304112e-05
4.96538414849e-05
1.59443949247e-05
4.5840183289e-05
1.24077928856e-05
4.2440094743e-05
9.101274778e-06
3.97291752326e-05
6.4894431779e-06
3.76873092055e-05
4.56723843833e-06
3.61976668251e-05
3.19065348465e-06
3.51326166372e-05
2.21501733836e-06
3.43823720309e-05
1.52704829402e-06
3.38606314956e-05
1.04388642834e-06
3.35023517001e-05
7.06213441361e-07
3.32596072426e-05
4.71748951409e-07
3.30975973837e-05
3.10304575438e-07
3.29913417545e-05
2.0028325e-07
3.29231003122e-05
1.26234838573e-07
3.2880412792e-05
7.71341664594e-08
3.28546280692e-05
4.5152066566e-08
3.28398013875e-05
2.47696801711e-08
3.28318752749e-05
1.21332590251e-08
3.28280061573e-05
4.58851444865e-09
3.2827007906e-05
6.6640569973e-11
3.28271890383e-05
-1.81062589548e-09
3.28280377983e-05
-2.71327987993e-09
3.28291538985e-05
-2.93346623196e-09
3.28303014548e-05
-2.77422286032e-09
3.28313577194e-05
-2.43573097582e-09
3.28322683854e-05
-2.03671783901e-09
3.28330186007e-05
-1.64353007528e-09
3.28336144532e-05
-1.28973412617e-09
3.28340708997e-05
-9.89028824525e-10
3.28344060008e-05
-7.44139107688e-10
3.28346724698e-05
-5.53397759992e-10
3.28348888767e-05
-4.160145902e-10
3.28350361604e-05
-2.80747264663e-10
3.28351354315e-05
-1.83281497037e-10
3.28352013203e-05
-1.15374666105e-10
3.28352432584e-05
-6.85085690153e-11
3.28352681215e-05
-3.52794635626e-11
3.28352798708e-05
-1.00896832633e-11
3.28352820647e-05
8.18910877269e-12
3.28352772003e-05
2.17037317221e-11
3.28352671028e-05
3.18889486479e-11
3.28352529961e-05
3.99654131567e-11
3.2835235627e-05
4.69204291476e-11
3.2835215457e-05
5.33986085622e-11
3.28351927807e-05
5.98319858127e-11
3.28351677903e-05
6.65194838262e-11
3.28351405706e-05
7.3757654815e-11
3.28351111225e-05
8.17964618598e-11
3.2835079743e-05
9.03626902523e-11
3.28350470047e-05
9.91979076885e-11
3.28350139057e-05
1.07808306276e-10
3.28349821828e-05
1.15233472205e-10
3.2834954807e-05
1.19725725105e-10
3.28349365139e-05
1.18529646817e-10
3.28349341146e-05
1.0801663303e-10
3.28349589977e-05
8.03588719792e-11
3.28350284576e-05
2.5287523893e-11
3.28351720687e-05
-7.69002973062e-11
3.28354411358e-05
-2.631813709e-10
3.28359241754e-05
-5.99271825731e-10
3.28366374494e-05
-1.02757355766e-09
3.28376741323e-05
-1.68632901032e-09
3.28392912859e-05
-2.74750141897e-09
3.28418661595e-05
-4.41928124572e-09
3.28459025373e-05
-7.04722838046e-09
3.28522148289e-05
-1.11876748988e-08
3.28621162759e-05
-1.77461783823e-08
3.28777720087e-05
-2.82498140285e-08
3.2902844125e-05
-4.53568065888e-08
3.29426868094e-05
-7.31774304825e-08
3.30071351021e-05
-1.19470495122e-07
3.31131825407e-05
-1.99022957578e-07
3.32898632785e-05
-3.41164455591e-07
3.35854214547e-05
-6.05525168402e-07
3.40710102943e-05
-1.11042825291e-06
3.48128870591e-05
-2.08459565282e-06
3.56749832429e-05
-3.97576322374e-06
-7.11325742477e-06
3.57447365394e-05
5.35105667569e-05
8.90861280438e-06
5.55742230728e-05
1.58808746189e-05
5.5242483837e-05
1.62761346287e-05
5.35977877616e-05
1.40524894243e-05
5.15418499689e-05
1.11572130293e-05
4.9580282661e-05
8.45101094186e-06
4.79243540978e-05
6.22316745866e-06
4.6618142676e-05
4.49686535596e-06
4.56304703255e-05
3.20269013546e-06
4.49051218296e-05
2.25239723369e-06
4.4384095091e-05
1.56491360381e-06
4.40166993879e-05
1.07360957606e-06
4.37619733383e-05
7.26475431377e-07
4.35882751764e-05
4.84003173025e-07
4.34718762555e-05
3.16682597987e-07
4.33953666214e-05
2.02744895636e-07
4.33461967741e-05
1.26304418598e-07
4.33154595949e-05
7.5889653174e-08
4.32969236588e-05
4.3306012522e-08
4.32862980124e-05
2.27592963e-08
4.32806955846e-05
1.01913355179e-08
4.32778883249e-05
2.87429065053e-09
4.32770609456e-05
-9.82863808567e-10
4.32772792407e-05
-2.93120068558e-09
4.32779671749e-05
-3.62103152919e-09
4.32788306178e-05
-3.63730115994e-09
4.32797037957e-05
-3.30855110712e-09
4.32805015901e-05
-2.83416394644e-09
4.32811876462e-05
-2.32924925799e-09
4.32817537517e-05
-1.85550979847e-09
4.32822067436e-05
-1.44170270491e-09
4.32825593131e-05
-1.09641038668e-09
4.32828212159e-05
-8.15022236909e-10
4.32829967554e-05
-5.91282123158e-10
4.32831299172e-05
-4.13643595781e-10
4.32832154483e-05
-2.68561233554e-10
4.32832695732e-05
-1.69265693661e-10
4.3283309515e-05
-1.08228107243e-10
4.32833340662e-05
-5.96195704279e-11
4.32833462213e-05
-2.20477361881e-11
4.32833493963e-05
5.19648397096e-12
4.32833455531e-05
2.57177528841e-11
4.32833363972e-05
4.12088870988e-11
4.32833230864e-05
5.34314916463e-11
4.32833062664e-05
6.3880991309e-11
4.32832863671e-05
7.34255521658e-11
4.32832637229e-05
8.25914046632e-11
4.32832386182e-05
9.1724512634e-11
4.32832114053e-05
1.01048228539e-10
4.32831826462e-05
1.10604508264e-10
4.32831529633e-05
1.20062482911e-10
4.32831233059e-05
1.28829870897e-10
4.32830951209e-05
1.35914489677e-10
4.32830705107e-05
1.39705699289e-10
4.32830524037e-05
1.37635873028e-10
4.32830451194e-05
1.2555847597e-10
4.32830565374e-05
9.62872653827e-11
4.32830986098e-05
3.79302186508e-11
4.32831905246e-05
-6.70116333793e-11
4.3283350042e-05
-2.36813587111e-10
4.32835847404e-05
-4.98273911833e-10
4.32840236289e-05
-1.03853085562e-09
4.32847879409e-05
-1.79221663445e-09
4.32860340381e-05
-2.9327044303e-09
4.32879689185e-05
-4.68258711403e-09
4.32909420227e-05
-7.39247688614e-09
4.32955127868e-05
-1.16179702375e-08
4.33025597986e-05
-1.82345747872e-08
4.33134653721e-05
-2.86515609258e-08
4.33303880942e-05
-4.51722529685e-08
4.33566386367e-05
-7.16069625291e-08
4.33977901451e-05
-1.14328465898e-07
4.34626988564e-05
-1.84378714937e-07
4.35650978071e-05
-3.01421484198e-07
4.37249566153e-05
-5.01022943682e-07
4.39668952857e-05
-8.47463591664e-07
4.43076110611e-05
-1.45114398529e-06
4.47084279725e-05
-2.48541259747e-06
4.49283901397e-05
-4.19572585003e-06
-6.58463337337e-06
4.43997682705e-05
5.2735138289e-05
6.1734748028e-06
5.57309352552e-05
1.28850781766e-05
5.73114755472e-05
1.46955947977e-05
5.7610993508e-05
1.37529719217e-05
5.71335248168e-05
1.16346821748e-05
5.63194708009e-05
9.26506540846e-06
5.54489911684e-05
7.09364754477e-06
5.46629811609e-05
5.28287581156e-06
5.401368616e-05
3.85198557971e-06
5.35061553993e-05
2.75992843729e-06
5.31242600605e-05
1.94680937533e-06
5.28449911066e-05
1.35287895255e-06
5.2645445465e-05
9.26021491546e-07
5.25057218362e-05
6.23727217314e-07
5.24097276879e-05
4.12677155475e-07
5.23450223042e-05
2.67450690637e-07
5.23022851079e-05
1.69042027029e-07
5.22746985622e-05
1.03476599953e-07
5.22573746143e-05
6.06303515102e-08
5.22468664921e-05
3.32678067476e-08
5.22407673036e-05
1.62909120448e-08
5.22374588783e-05
6.18309882764e-09
5.22359605716e-05
5.15818516737e-10
5.22354529126e-05
-2.42317061059e-09
5.22355180904e-05
-3.68584089548e-09
5.22358637253e-05
-3.98257307691e-09
5.22363181026e-05
-3.76257367554e-09
5.22367845903e-05
-3.300303726e-09
5.22372120836e-05
-2.75640972534e-09
5.22375778679e-05
-2.22096819457e-09
5.22378752461e-05
-1.73876437764e-09
5.22381070008e-05
-1.3278631209e-09
5.22382834145e-05
-9.91148550717e-10
5.22384164037e-05
-7.23993676557e-10
5.22385168639e-05
-5.13837748841e-10
5.22386015566e-05
-3.530009695e-10
5.22386671851e-05
-2.3465991828e-10
5.2238709584e-05
-1.50407748007e-10
5.22387424359e-05
-9.22638669328e-11
5.22387579429e-05
-3.73595004831e-11
5.22387632631e-05
5.9259483274e-14
5.22387609707e-05
2.81835814994e-11
5.22387530204e-05
4.93248030529e-11
5.22387407345e-05
6.58748809516e-11
5.2238724979e-05
7.97839770576e-11
5.2238706328e-05
9.22102049396e-11
5.22386852842e-05
1.03753659635e-10
5.22386626214e-05
1.14487399801e-10
5.22386388745e-05
1.24872418805e-10
5.22386124954e-05
1.3703614348e-10
5.22385850959e-05
1.47483765324e-10
5.22385577466e-05
1.56155447637e-10
5.22385319804e-05
1.61599435724e-10
5.2238510261e-05
1.61287603023e-10
5.22384973718e-05
1.50332068412e-10
5.22385049221e-05
1.17751185564e-10
5.22385337273e-05
6.7161039768e-11
5.22386061981e-05
-3.49054652964e-11
5.2238723494e-05
-1.84699832402e-10
5.22389123126e-05
-4.26036177525e-10
5.22392465491e-05
-8.3289707604e-10
5.22397574153e-05
-1.54975657398e-09
5.22405224925e-05
-2.55761978565e-09
5.22416738448e-05
-4.08432622949e-09
5.22434144618e-05
-6.42339523943e-09
5.22460455016e-05
-1.00236070383e-08
5.22500186342e-05
-1.55910869706e-08
5.22560247465e-05
-2.42405740356e-08
5.22651225636e-05
-3.77491765774e-08
5.22789298215e-05
-5.89792228788e-08
5.22999055574e-05
-9.25823094247e-08
5.23317675863e-05
-1.46189994908e-07
5.23798635436e-05
-2.32474093042e-07
5.24511272165e-05
-3.72684558524e-07
5.25524346108e-05
-6.02329701118e-07
5.26843480354e-05
-9.79376307111e-07
5.28246589605e-05
-1.59145447704e-06
5.28918796928e-05
-2.55263304671e-06
5.2673473063e-05
-3.97731980275e-06
-5.77560989075e-06
5.18644507383e-05
5.19834867548e-05
4.18998833631e-06
5.50586647793e-05
9.80990067923e-06
5.7638614465e-05
1.21156455758e-05
5.9325904855e-05
1.20656819912e-05
6.02280173313e-05
1.0732570157e-05
6.0592928949e-05
8.90015424342e-06
6.06482862992e-05
7.03829064805e-06
6.05531922617e-05
5.37797029976e-06
6.04029580988e-05
4.00222018796e-06
6.02479180019e-05
2.91496898089e-06
6.01107928763e-05
2.08393494388e-06
5.99990337525e-05
1.46463851437e-06
5.99125189729e-05
1.012536704e-06
5.98479274662e-05
6.8831914123e-07
5.98010242797e-05
4.59580757814e-07
5.976774e-05
3.0073537982e-07
5.97445990067e-05
1.92183425548e-07
5.97288208162e-05
1.19255193887e-07
5.97182730144e-05
7.11785523813e-08
5.97113671637e-05
4.01740521817e-08
5.97069481517e-05
2.07103131922e-08
5.97042145895e-05
8.91704410879e-09
5.97026058826e-05
2.12490431158e-09
5.97017016674e-05
-1.51857936756e-09
5.97012436802e-05
-3.22748034626e-09
5.97010544533e-05
-3.79297988087e-09
5.9701018451e-05
-3.72621543938e-09
5.97010630177e-05
-3.34452081817e-09
5.9701144425e-05
-2.83748193068e-09
5.97012370068e-05
-2.3132264197e-09
5.97013268889e-05
-1.82832876549e-09
5.97014074491e-05
-1.40811871976e-09
5.97014772621e-05
-1.06067240667e-09
5.9701536933e-05
-7.83388495852e-10
5.97015872669e-05
-5.63908159589e-10
5.97016271597e-05
-3.92644608148e-10
5.97016550382e-05
-2.62305473568e-10
5.97016704258e-05
-1.65577850415e-10
5.97016688777e-05
-9.05101054764e-11
5.97016609435e-05
-2.92311833333e-11
5.97016544579e-05
6.72756690872e-12
5.97016453062e-05
3.75078364232e-11
5.9701635007e-05
5.97895997457e-11
5.9701623485e-05
7.75496795582e-11
5.97016096842e-05
9.37243788163e-11
5.97015934392e-05
1.08583367457e-10
5.97015747779e-05
1.22524697349e-10
5.97015536025e-05
1.35757529526e-10
5.97015302846e-05
1.48265781048e-10
5.97015076075e-05
1.59770716102e-10
5.97014855784e-05
1.69538534671e-10
5.97014654355e-05
1.7627414475e-10
5.97014488769e-05
1.78078381524e-10
5.97014376111e-05
1.7242034667e-10
5.97014314032e-05
1.56347497407e-10
5.97014213835e-05
1.27513929214e-10
5.97014238163e-05
6.44045740141e-11
5.9701434619e-05
-4.60725360785e-11
5.97015105748e-05
-2.61043587638e-10
5.97016939533e-05
-6.09814756916e-10
5.97019889637e-05
-1.12829233903e-09
5.9702369643e-05
-1.93079572444e-09
5.97029398657e-05
-3.12816199313e-09
5.97037822568e-05
-4.92697730562e-09
5.97050103963e-05
-7.65171440609e-09
5.9706788847e-05
-1.18021428338e-08
5.97093551571e-05
-1.81573751864e-08
5.97130525986e-05
-2.79378946827e-08
5.97183699893e-05
-4.30663672129e-08
5.9725987261e-05
-6.6596225027e-08
5.97368054819e-05
-1.0340017751e-07
5.97518859804e-05
-1.61270048876e-07
5.97720653236e-05
-2.52652940258e-07
5.97967512077e-05
-3.9736995248e-07
5.98207857293e-05
-6.26363679558e-07
5.98272886408e-05
-9.85878663628e-07
5.97742018669e-05
-1.53836719962e-06
5.95735538995e-05
-2.35198467851e-06
5.9067396387e-05
-3.47116257881e-06
-4.80346364849e-06
5.80952507865e-05
5.14373056581e-05
2.75268296701e-06
5.42658213778e-05
6.98138548089e-06
5.72496444851e-05
9.13182293259e-06
5.9790029266e-05
9.52529766872e-06
6.17201301779e-05
8.80246970585e-06
6.30883055359e-05
7.53197934195e-06
6.40167195024e-05
6.10987713363e-06
6.46292397021e-05
4.76545054622e-06
6.50258070583e-05
3.60565327279e-06
6.52790820313e-05
2.66169444742e-06
6.54389774749e-05
1.9240399356e-06
6.55386947002e-05
1.36492172112e-06
6.55999336324e-05
9.51298197272e-07
6.5636748845e-05
6.51504352322e-07
6.56582003475e-05
4.38129675289e-07
6.56701089758e-05
2.88827162517e-07
6.56761986211e-05
1.86094182068e-07
6.56788353415e-05
1.16618874628e-07
6.56795061973e-05
7.05080952305e-08
6.56791304103e-05
4.05502316413e-08
6.56782634338e-05
2.15776769346e-08
6.56772329356e-05
9.94792644688e-09
6.56762241e-05
3.13412125571e-09
6.56753152252e-05
-6.09327881871e-10
6.56745469321e-05
-2.45881578739e-09
6.5673918965e-05
-3.16464977177e-09
6.56734204479e-05
-3.22734507911e-09
6.56730339176e-05
-2.95764377388e-09
6.56727403799e-05
-2.54361021732e-09
6.56725216707e-05
-2.09419555081e-09
6.56723616835e-05
-1.66802473406e-09
6.56722467391e-05
-1.2928700966e-09
6.56721647012e-05
-9.78346713762e-10
6.56721049523e-05
-7.23369133119e-10
6.56720617187e-05
-5.20416693378e-10
6.56720307661e-05
-3.6144572485e-10
6.56720059674e-05
-2.37272604582e-10
6.56719846454e-05
-1.44034702842e-10
6.56719699151e-05
-7.55690001362e-11
6.56719683872e-05
-2.75033547909e-11
6.56719670334e-05
8.26801848824e-12
6.56719598246e-05
4.48939150141e-11
6.56719498522e-05
6.99248835829e-11
6.56719374354e-05
9.01204723318e-11
6.56719234312e-05
1.07867103128e-10
6.56719078608e-05
1.24282448674e-10
6.56718905626e-05
1.39931592912e-10
6.56718714656e-05
1.54949859737e-10
6.5671851167e-05
1.68644656529e-10
6.56718316098e-05
1.79385764379e-10
6.56718116468e-05
1.89525307152e-10
6.56717918174e-05
1.96080370611e-10
6.56717732212e-05
1.96601211476e-10
6.56717576842e-05
1.878290817e-10
6.56717487468e-05
1.65089210819e-10
6.56717537578e-05
1.22240573559e-10
6.56717611995e-05
5.66422216402e-11
6.56717872627e-05
-7.24951721387e-11
6.5671853804e-05
-3.27978966684e-10
6.56719477542e-05
-7.04168889005e-10
6.56720931141e-05
-1.27403827988e-09
6.56722964167e-05
-2.1344487259e-09
6.56725738256e-05
-3.40588422152e-09
6.56729416724e-05
-5.29508691352e-09
6.56734105217e-05
-8.12074461832e-09
6.56739774712e-05
-1.23691656271e-08
6.56746118418e-05
-1.87917081765e-08
6.56752270581e-05
-2.85529849897e-08
6.56756207354e-05
-4.34598518903e-08
6.56753638095e-05
-6.63390379447e-08
6.56735860847e-05
-1.0162211024e-07
6.56685498358e-05
-1.56233390996e-07
6.56567158572e-05
-2.40818551848e-07
6.56309489351e-05
-3.71602621087e-07
6.55770872639e-05
-5.72501528876e-07
6.54678783635e-05
-8.76669392615e-07
6.5254118996e-05
-1.32460729631e-06
6.48556943388e-05
-1.95355950707e-06
6.416000854e-05
-2.77547678704e-06
-3.72009976253e-06
6.30766450024e-05
5.10850426501e-05
1.66764060573e-06
5.36118453645e-05
4.45458328418e-06
5.66873177364e-05
6.05635102395e-06
5.96894481892e-05
6.52316767449e-06
6.22997292359e-05
6.19218911743e-06
6.44136912332e-05
5.41801780233e-06
6.6047187811e-05
4.47638101209e-06
6.72686197939e-05
3.54401901303e-06
6.81598992752e-05
2.71437423758e-06
6.87977663323e-05
2.02382783339e-06
6.92467511842e-05
1.47505552399e-06
6.95579705154e-05
1.05370283034e-06
6.97704377074e-05
7.38831433645e-07
6.99131813106e-05
5.08761167677e-07
7.00073929951e-05
3.43918408432e-07
7.00683031746e-05
2.27917400017e-07
7.01067058482e-05
1.47691916919e-07
7.0130148816e-05
9.31763109726e-08
7.0143838612e-05
5.6818697827e-08
7.01513153816e-05
3.30738547875e-08
7.01549485202e-05
1.79449282417e-08
7.01562969518e-05
8.59988279781e-09
7.01563694767e-05
3.06198037784e-09
7.01557780568e-05
-1.7531461834e-11
7.01549177897e-05
-1.59817806636e-09
7.01539947692e-05
-2.24126715119e-09
7.01531267073e-05
-2.35892959491e-09
7.01523672616e-05
-2.19785444889e-09
7.01517336352e-05
-1.90965033458e-09
7.01512229725e-05
-1.5832101925e-09
7.01508223479e-05
-1.26708367986e-09
7.01505148049e-05
-9.85023170587e-10
7.01502827049e-05
-7.45959079507e-10
7.01501098827e-05
-5.50271943982e-10
7.01499833418e-05
-3.93614309343e-10
7.01498924321e-05
-2.70289174523e-10
7.01498300568e-05
-1.74662190597e-10
7.01497887617e-05
-1.02516084161e-10
7.01497604668e-05
-4.70626472884e-11
7.01497307039e-05
2.45783979438e-12
7.01497075485e-05
3.16090851574e-11
7.01496947524e-05
5.78650231621e-11
7.0149684431e-05
8.04093816142e-11
7.0149674685e-05
1.00017318683e-10
7.01496647581e-05
1.17929367511e-10
7.01496542716e-05
1.3489499575e-10
7.01496430842e-05
1.51232298087e-10
7.01496312264e-05
1.66906524217e-10
7.01496184119e-05
1.81542503753e-10
7.01496033266e-05
1.94529802712e-10
7.01495879173e-05
2.04955627283e-10
7.01495729398e-05
2.11036809251e-10
7.01495591415e-05
2.10331980587e-10
7.0149547142e-05
1.99699169667e-10
7.01495366379e-05
1.7538811946e-10
7.01495252068e-05
1.33404171986e-10
7.01495134585e-05
6.8074072123e-11
7.01495050955e-05
-6.44972821249e-11
7.01495103764e-05
-3.33658478534e-10
7.01495289673e-05
-7.231591471e-10
7.0149547665e-05
-1.2931142774e-09
7.014954413e-05
-2.13125599465e-09
7.01494910928e-05
-3.35315180756e-09
7.01493349593e-05
-5.13920227863e-09
7.01489763112e-05
-7.76226011771e-09
7.01482392244e-05
-1.16321336435e-08
7.01468215337e-05
-1.73739719968e-08
7.01442102303e-05
-2.59415610411e-08
7.01395286768e-05
-3.87781095414e-08
7.01312931061e-05
-5.81031901056e-08
7.01170128968e-05
-8.73415164044e-08
7.00925254626e-05
-1.31745513524e-07
7.00507313944e-05
-1.99024066609e-07
6.99796438941e-05
-3.00514634188e-07
6.98592764671e-05
-4.52133425552e-07
6.96571502139e-05
-6.74542659925e-07
6.93232957228e-05
-9.90752233493e-07
6.87880710185e-05
-1.41833420497e-06
6.79687395513e-05
-1.95614507383e-06
-2.55835425689e-06
6.68069943467e-05
5.0880413484e-05
7.87227409172e-07
5.31704669927e-05
2.16453029693e-06
5.62177510041e-05
3.00906747647e-06
5.94382714523e-05
3.30264768612e-06
6.24449717045e-05
3.18548932171e-06
6.50382555483e-05
2.82473441314e-06
6.7154869538e-05
2.35976747779e-06
6.88135684438e-05
1.88532055978e-06
7.00731748503e-05
1.4547682809e-06
7.1005672212e-05
1.09133091377e-06
7.16812688985e-05
7.99459272094e-07
7.21614286487e-05
5.73543512087e-07
7.24966099733e-05
4.03650543606e-07
7.27264869227e-05
2.78884643919e-07
7.28812862155e-05
1.89119531788e-07
7.29834763701e-05
1.25727662372e-07
7.30494205534e-05
8.17481442088e-08
7.30908230646e-05
5.17742045486e-08
7.31159174142e-05
3.17247478537e-08
7.31304023359e-05
1.85893282323e-08
7.31381574555e-05
1.01901999533e-08
7.31417782894e-05
4.97943512928e-09
7.31429663866e-05
1.87426357916e-09
7.31428203841e-05
1.28846581224e-10
7.31419975364e-05
-7.74959361089e-10
7.31409149981e-05
-1.15837051283e-09
7.3139800493e-05
-1.2440668888e-09
7.31387734253e-05
-1.17043593878e-09
7.31378862435e-05
-1.0221292159e-09
7.31371528608e-05
-8.49499376495e-10
7.3136565896e-05
-6.79804876016e-10
7.31361079606e-05
-5.26784985085e-10
7.31357581868e-05
-3.95892008441e-10
7.31354959443e-05
-2.87749219583e-10
7.31353028882e-05
-2.00293645711e-10
7.31351633896e-05
-1.30541564359e-10
7.31350641955e-05
-7.52310528491e-11
7.31349927676e-05
-3.08633012419e-11
7.3134939837e-05
6.07885115676e-12
7.31349102626e-05
3.22267654432e-11
7.31348872974e-05
5.47589958776e-11
7.31348706403e-05
7.46971368753e-11
7.3134858403e-05
9.2807579025e-11
7.31348487835e-05
1.09784903941e-10
7.31348405135e-05
1.26336040564e-10
7.31348327042e-05
1.42825549306e-10
7.31348247386e-05
1.59309007831e-10
7.31348161806e-05
1.75561272651e-10
7.31348067645e-05
1.91036662544e-10
7.313479644e-05
2.04905342305e-10
7.31347852483e-05
2.16163119428e-10
7.31347732408e-05
2.23021980343e-10
7.31347605041e-05
2.22994609928e-10
7.31347472149e-05
2.12850721437e-10
7.3134733815e-05
1.88584511086e-10
7.31347211574e-05
1.45791648873e-10
7.31347068857e-05
8.20269298779e-11
7.31346815298e-05
-3.95214806007e-11
7.31346379539e-05
-2.90486360537e-10
7.31345691402e-05
-6.547422008e-10
7.31344518137e-05
-1.17615660052e-09
7.31342424671e-05
-1.92224998451e-09
7.31338726892e-05
-2.98367554528e-09
7.31332271865e-05
-4.49393184605e-09
7.3132112472e-05
-6.64767924502e-09
7.31302057085e-05
-9.72540458027e-09
7.31269793919e-05
-1.41476110915e-08
7.31215764975e-05
-2.05385624495e-08
7.31125806814e-05
-2.978212964e-08
7.30976840405e-05
-4.32062920059e-08
7.30731775447e-05
-6.2834616262e-08
7.30331512676e-05
-9.17187341674e-08
7.29680760056e-05
-1.33948335627e-07
7.28629121158e-05
-1.95350227943e-07
7.2694457668e-05
-2.83678246845e-07
7.24281544522e-05
-4.08238850209e-07
7.20155499399e-05
-5.78147123581e-07
7.13953057095e-05
-7.98089303807e-07
7.05016597942e-05
-1.0624986932e-06
-1.3463869466e-06
6.92896928793e-05
5.0787172892e-05
5.48028382495e-11
5.29516506732e-05
5.30390407254e-11
5.59606897431e-05
2.88706376074e-11
5.92633236414e-05
1.42477908453e-11
6.24488106143e-05
2.80408071505e-12
6.52735515331e-05
-6.05407291036e-12
6.76333314135e-05
-1.19516246791e-11
6.95186673126e-05
-1.48918506085e-11
7.09734513575e-05
-1.53187514826e-11
7.20647965422e-05
-1.38311525082e-11
7.28642673124e-05
-1.10607181065e-11
7.34378189151e-05
-7.66146073009e-12
7.38414741817e-05
-4.29190311931e-12
7.41203608548e-05
-1.60158340522e-12
7.43094809796e-05
-1.77432580103e-13
7.44352094644e-05
-4.09509761661e-13
7.45169605776e-05
-2.56163037496e-12
7.45687415687e-05
-6.38436602082e-12
7.46004779551e-05
-1.12395681316e-11
7.46190838244e-05
-1.61458167852e-11
7.46292943882e-05
-1.9974685683e-11
7.46342958371e-05
-2.16311163407e-11
7.46361911276e-05
-2.06487838939e-11
7.46363386524e-05
-1.83035888371e-11
7.46355798435e-05
-1.57728370115e-11
7.463443445e-05
-1.26200560335e-11
7.46331997484e-05
-9.00958969832e-12
7.46320346925e-05
-5.02411753802e-12
7.46310130693e-05
-1.68528768589e-13
7.46301599713e-05
3.92301787884e-12
7.4629471883e-05
8.59698491109e-12
7.46289318103e-05
1.35887986862e-11
7.46285173595e-05
1.88548647693e-11
7.46282054372e-05
2.44576294748e-11
7.46279748306e-05
3.05810787243e-11
7.46278071944e-05
3.73482095412e-11
7.46276873608e-05
4.4839845575e-11
7.46276036824e-05
5.30376297718e-11
7.46275480027e-05
6.19655273991e-11
7.46275091505e-05
7.12748978264e-11
7.46274831649e-05
8.09274662976e-11
7.46274661968e-05
9.18381293998e-11
7.46274552561e-05
1.03909880797e-10
7.46274481086e-05
1.17080077946e-10
7.46274432241e-05
1.31365300535e-10
7.46274395208e-05
1.46655668886e-10
7.46274362499e-05
1.62692477077e-10
7.46274328702e-05
1.79038076161e-10
7.46274289493e-05
1.95036312147e-10
7.46274241276e-05
2.09778741579e-10
7.46274182166e-05
2.22092738547e-10
7.4627410991e-05
2.3022752895e-10
7.46274020632e-05
2.31846090147e-10
7.46273907672e-05
2.24005045656e-10
7.46273759687e-05
2.03187758871e-10
7.46273559273e-05
1.65572201097e-10
7.46273296264e-05
1.07997633728e-10
7.46272848256e-05
4.89188318142e-12
7.46271952704e-05
-2.01330161771e-10
7.46270580994e-05
-5.17958071157e-10
7.46268339339e-05
-9.52350945154e-10
7.4626461697e-05
-1.55034734981e-09
7.46258447246e-05
-2.36699147691e-09
7.4624825964e-05
-3.47538738536e-09
7.462314996e-05
-4.97179877962e-09
7.46203987883e-05
-6.97426354964e-09
7.46159069027e-05
-9.65567308195e-09
7.46086141837e-05
-1.32457350612e-08
7.4596779099e-05
-1.79469068906e-08
7.45775976e-05
-2.40245794117e-08
7.45466577905e-05
-3.18944420112e-08
7.44972107031e-05
-4.22711369628e-08
7.44185040972e-05
-5.52412012068e-08
7.42941189657e-05
-7.09645999168e-08
7.40996412103e-05
-8.91998459456e-08
7.38001960451e-05
-1.0879306362e-07
7.33490306953e-05
-1.26981199808e-07
7.26895321143e-05
-1.38590094384e-07
7.17634630553e-05
-1.36429130162e-07
-1.11991308362e-07
7.05290678283e-05
5.07871718574e-05
-7.87116766086e-07
5.29516498193e-05
-2.16442439735e-06