/*--------------------------------*- C++ -*----------------------------------*\
| =========                 |                                                 |
| \\      /  F ield         | OpenFOAM: The Open Source CFD Toolbox           |
|  \\    /   O peration     | Version:  2106                                  |
|   \\  /    A nd           | Website:  www.openfoam.com                      |
|    \\/     M anipulation  |                                                 |
\*---------------------------------------------------------------------------*/
FoamFile
{
    version     2.0;
    format      ascii;
    arch        "LSB;label=32;scalar=64";
    class       volScalarField;
    location    "0.5";
    object      phiE;
}
// * * * * * * * * * * * * * * * * * * * * * * * * * * * * * * * * * * * * * //

dimensions      [1 2 -3 0 0 -1 0];

internalField   nonuniform List<scalar> 
9600
(
2.83717163579e-17
8.53612043654e-17
1.43303481412e-16
2.03031596576e-16
2.65306930801e-16
3.30912816523e-16
4.0066444284e-16
4.75417834257e-16
5.56078687107e-16
6.43611376158e-16
7.39048293463e-16
8.43499627459e-16
9.58163669203e-16
1.08433772438e-15
1.22342970691e-15
1.3769704899e-15
1.5466270909e-15
1.73421677041e-15
1.94172212537e-15
2.17130726217e-15
2.42533513687e-15
2.70638615396e-15
3.01727811852e-15
3.36108764031e-15
3.7411730926e-15
4.16119923209e-15
4.62516359076e-15
5.13742475469e-15
5.70273264867e-15
6.32626095027e-15
7.01364176078e-15
7.77100266487e-15
8.60500631484e-15
9.52289267928e-15
1.05325240999e-14
1.16424333042e-14
1.28618745239e-14
1.42008778749e-14
1.56703071537e-14
1.72819212108e-14
1.90484390631e-14
2.09836089069e-14
2.31022811969e-14
2.54204859564e-14
2.79555144819e-14
3.07260056075e-14
3.3752036691e-14
3.70552194812e-14
4.06588010243e-14
4.45877697607e-14
4.88689669603e-14
5.35312036371e-14
5.86053830765e-14
6.41246290995e-14
7.01244201797e-14
7.6642729515e-14
8.37201711455e-14
9.1400152193e-14
9.97290312834e-14
1.08756283193e-13
1.18534669743e-13
1.2912041695e-13
1.405733984e-13
1.52957324819e-13
1.66339939752e-13
1.80793221268e-13
1.96393589554e-13
2.13222120235e-13
2.31364763237e-13
2.50912566956e-13
2.71961907471e-13
2.94614722488e-13
3.18978749685e-13
3.45167769053e-13
3.73301848811e-13
4.03507594417e-13
4.3591840015e-13
4.70674702682e-13
5.07924236042e-13
5.47822287278e-13
5.90531952104e-13
6.36224389768e-13
6.85079076301e-13
7.37284055285e-13
7.93036185209e-13
8.52541382431e-13
9.16014858728e-13
9.83681352344e-13
1.05577535143e-12
1.13254130869e-12
1.21423384603e-12
1.30111794797e-12
1.39346914249e-12
1.49157366805e-12
1.59572862539e-12
1.70624211269e-12
1.82343334288e-12
1.94763274148e-12
2.07918202367e-12
2.21843424927e-12
2.36575385405e-12
2.52151665627e-12
2.68610983691e-12
2.85993189248e-12
3.04339255917e-12
3.23691270725e-12
3.44092420479e-12
3.65586974976e-12
3.88220267004e-12
4.1203866906e-12
4.37089566796e-12
4.63421329175e-12
4.91083275399e-12
5.20125638689e-12
5.5059952705e-12
5.82556881233e-12
6.16050430147e-12
6.5113364409e-12
6.87860686248e-12
7.26286363059e-12
7.66466074153e-12
8.08455762793e-12
8.52311867938e-12
8.98091279307e-12
9.45851297145e-12
9.95649598775e-12
1.04754421447e-11
1.10159351577e-11
1.15785622002e-11
1.21639141583e-11
1.27725861509e-11
1.34051783863e-11
1.40622974405e-11
1.47445580647e-11
1.54525856532e-11
1.61870195365e-11
1.69485173054e-11
1.77377604266e-11
1.8555461479e-11
1.94023734346e-11
2.02793015315e-11
2.11871184579e-11
2.21267838012e-11
2.30993690471e-11
2.41060898918e-11
2.51483483288e-11
2.62277880229e-11
2.73463680968e-11
2.85064630148e-11
2.97110004255e-11
3.09636558924e-11
3.22691359152e-11
3.36336037114e-11
3.50653474049e-11
3.65758848986e-11
3.81819148037e-11
3.99090620804e-11
4.17998854624e-11
4.39334890815e-11
4.64820624612e-11
2.82142409713e-17
8.49341850286e-17
1.42659236194e-16
2.02169587218e-16
2.64220880011e-16
3.29592937132e-16
3.99098102837e-16
4.73589743577e-16
5.53970907492e-16
6.4120325026e-16
7.36316328008e-16
8.40417344374e-16
9.54701430626e-16
1.08046253404e-15
1.21910498881e-15
1.37215584441e-15
1.54127802789e-15
1.72828441895e-15
1.93515291921e-15
2.16404260009e-15
2.41731101706e-15
2.69753278141e-15
3.00751948431e-15
3.3503410719e-15
3.72934877375e-15
4.14819969149e-15
4.61088315816e-15
5.12174898331e-15
5.68553770281e-15
6.30741295694e-15
6.99299612426e-15
7.748403343e-15
8.58028505608e-15
9.49586821947e-15
1.05030013178e-14
1.16102023348e-14
1.2826709829e-14
1.41625372697e-14
1.56285307893e-14
1.72364305122e-14
1.89989356217e-14
2.09297733279e-14
2.30437719017e-14
2.53569379395e-14
2.78865380232e-14
3.06511849408e-14
3.36709286287e-14
3.69673519973e-14
4.05636717965e-14
4.4484844673e-14
4.87576785691e-14
5.34109496024e-14
5.84755245602e-14
6.39844891359e-14
6.99732820195e-14
7.64798349479e-14
8.3544718805e-14
9.1211295849e-14
9.95258781262e-14
1.08537892116e-13
1.18300049631e-13
1.28868524974e-13
1.40303138334e-13
1.52667545378e-13
1.6602943297e-13
1.80460720912e-13
1.96037769589e-13
2.12841593356e-13
2.30958079463e-13
2.50478212316e-13
2.71498302769e-13
2.94120222187e-13
3.18451640894e-13
3.44606270651e-13
3.72704110706e-13
4.02871696964e-13
4.35242353729e-13
4.69956447468e-13
5.07161641958e-13
5.4701315416e-13
5.89674010094e-13
6.35315299933e-13
6.8411643151e-13
7.36265381347e-13
7.91958942286e-13
8.51402966743e-13
9.14812604556e-13
9.82412534353e-13
1.05443718731e-12
1.13113096214e-12
1.21274843007e-12
1.29955452862e-12
1.3918247428e-12
1.4898452725e-12
1.59391318459e-12
1.70433654856e-12
1.82143455408e-12
1.94553760923e-12
2.07698741791e-12
2.21613703514e-12
2.36335089867e-12
2.51900483581e-12
2.68348604386e-12
2.85719304314e-12
3.0405356013e-12
3.23393462776e-12
3.43782203744e-12
3.65264058279e-12
3.87884365352e-12
4.1168950435e-12
4.3672686846e-12
4.63044834761e-12
4.90692731049e-12
5.1972079949e-12
5.50180157226e-12
5.82122754126e-12
6.15601327948e-12
6.50669357244e-12
6.87381012473e-12
7.25791105872e-12
7.65955040806e-12
8.0792876148e-12
8.51768704111e-12
8.97531750908e-12
9.45275188507e-12
9.95056672905e-12
1.04693420335e-11
1.10096610825e-11
1.15721104674e-11
1.21572803048e-11
1.27657647127e-11
1.33981626115e-11
1.40550789347e-11
1.47371263516e-11
1.54449276301e-11
1.6179118798e-11
1.69403533001e-11
1.77293074025e-11
1.85466871567e-11
1.93932373288e-11
2.02697528107e-11
2.11770931921e-11
2.21162013822e-11
2.30881274774e-11
2.40940594915e-11
2.51353631881e-11
2.62136341623e-11
2.73307666957e-11
2.84890460311e-11
2.96912740727e-11
3.09409439853e-11
3.22424883024e-11
3.36016408606e-11
3.50259805381e-11
3.65257739536e-11
3.81153189642e-11
3.98151108646e-11
4.16551496738e-11
4.36783421615e-11
4.59322963076e-11
2.81558011564e-17
8.47788043802e-17
1.42418482817e-16
2.01847724365e-16
2.63818125217e-16
3.29107151298e-16
3.98525556304e-16
4.72925454748e-16
5.53208786927e-16
6.40336151342e-16
7.35336048719e-16
8.39314600662e-16
9.53465811207e-16
1.07908244158e-15
1.21756756997e-15
1.37044691009e-15
1.53938196428e-15
1.72618408961e-15
1.93282955829e-15
2.16147569652e-15
2.41447818958e-15
2.6944096442e-15
3.00407950295e-15
3.34655540926e-15
3.72518612566e-15
4.14362611169e-15
4.60586187228e-15
5.1162401914e-15
5.67949837024e-15
6.30079659315e-15
6.98575254908e-15
7.74047844024e-15
8.57162051394e-15
9.48640125758e-15
1.04926644005e-14
1.15989228706e-14
1.28144098554e-14
1.41491331243e-14
1.56139327658e-14
1.72205425016e-14
1.89816547395e-14
2.09109895255e-14
2.3023367564e-14
2.53347874673e-14
2.78625074015e-14
3.06251312928e-14
3.36426997558e-14
3.69367859062e-14
4.05305962128e-14
4.44490765435e-14
4.87190235518e-14
5.33692015457e-14
5.84304649736e-14
6.39358866512e-14
6.99208918447e-14
7.64233983156e-14
8.34839624162e-14
9.11459313138e-14
9.94556014039e-14
1.08462382956e-13
1.18218971016e-13
1.28781522571e-13
1.4020983995e-13
1.52567560428e-13
1.65922351957e-13
1.80346114923e-13
1.95915189814e-13
2.1271057062e-13
2.30818123798e-13
2.50328812543e-13
2.71338926134e-13
2.93950314015e-13
3.18270624296e-13
3.44413546269e-13
3.72499056508e-13
4.02653668093e-13
4.35010682404e-13
4.6971044295e-13
5.06900590579e-13
5.46736319419e-13
5.89380632829e-13
6.35004598564e-13
6.83787602366e-13
7.35917599072e-13
7.91591360332e-13
8.5101471795e-13
9.1440280182e-13
9.81980271386e-13
1.05398153948e-12
1.13065098743e-12
1.21224317007e-12
1.29902300965e-12
1.39126597708e-12
1.48925825941e-12
1.59329691197e-12
1.70368999405e-12
1.8207566865e-12
1.94482738995e-12
2.0762438022e-12
2.21535897344e-12
2.36253733782e-12
2.51815472001e-12
2.68259831552e-12
2.85626664336e-12
3.03956946998e-12
3.23292770321e-12
3.4367732553e-12
3.65154887417e-12
3.87770794205e-12
4.11571424116e-12
4.36604168595e-12
4.62917402204e-12
4.90560449206e-12
5.19583546927e-12
5.50037805999e-12
5.81975167673e-12
6.15448358439e-12
6.50510842284e-12
6.87216770997e-12
7.25620933076e-12
7.65778701889e-12
8.0774598395e-12
8.51579168328e-12
8.97335078491e-12
9.45070928132e-12
9.94844282922e-12
1.04671303051e-11
1.10073536167e-11
1.15696976607e-11
1.21547504693e-11
1.27631035982e-11
1.33953528198e-11
1.40520992001e-11
1.47339506554e-11
1.54415241077e-11
1.61754483872e-11
1.69363680621e-11
1.77249484275e-11
1.8541881938e-11
1.93878964486e-11
2.02637657272e-11
2.11703228362e-11
2.21084771558e-11
2.30792360706e-11
2.40837326713e-11
2.51232612951e-11
2.6199323393e-11
2.73136871617e-11
2.84684657515e-11
2.9666220852e-11
3.0910101307e-11
3.22040303596e-11
3.35529600195e-11
3.49632150326e-11
3.64429436886e-11
3.80026469349e-11
3.96555596253e-11
4.14169237577e-11
4.32986620111e-11
4.52880746167e-11
2.8110099558e-17
8.46485032069e-17
1.42210140403e-16
2.01564677161e-16
2.63460954197e-16
3.28674427681e-16
3.9801435023e-16
4.72331622285e-16
5.52527117263e-16
6.39560432447e-16
7.34459085042e-16
8.38328201121e-16
9.52360757376e-16
1.07784844142e-15
1.21619320012e-15
1.36891954828e-15
1.53768771276e-15
1.72430769015e-15
1.93075429874e-15
2.15918330916e-15
2.41194874108e-15
2.69162141699e-15
3.00100886794e-15
3.34317668957e-15
3.72147145114e-15
4.13954526393e-15
4.60138211984e-15
5.11132611497e-15
5.67411167737e-15
6.29489592234e-15
6.97929326284e-15
7.73341240684e-15
8.56389587766e-15
9.4779621971e-15
1.04834508752e-14
1.15888703544e-14
1.28034490588e-14
1.41371897023e-14
1.56009270148e-14
1.72063890421e-14
1.89662621861e-14
2.08942601447e-14
2.30051969181e-14
2.5315064046e-14
2.7841112241e-14
3.06019375822e-14
3.3617572432e-14
3.69095812363e-14
4.05011613664e-14
4.44172491532e-14
4.86846312649e-14
5.33320615663e-14
5.83903835961e-14
6.38926587868e-14
6.9874300542e-14
7.63732142757e-14
8.34299435044e-14
9.1087822069e-14
9.93931325479e-14
1.08395270903e-13
1.18146917388e-13
1.28704213711e-13
1.40126946453e-13
1.52478736673e-13
1.65827235654e-13
1.80244326676e-13
1.95806332695e-13
2.12594229774e-13
2.30693866056e-13
2.50196186076e-13
2.71197460126e-13
2.93799518371e-13
3.18109989387e-13
3.44242542713e-13
3.72317134998e-13
4.02460259263e-13
4.34805196752e-13
4.69492270808e-13
5.06669102142e-13
5.46490864829e-13
5.89120542322e-13
6.34729182681e-13
6.83496152231e-13
7.35609386735e-13
7.91265639184e-13
8.50670723205e-13
9.14039751069e-13
9.81597365214e-13
1.05357796216e-12
1.13022590765e-12
1.21179574176e-12
1.29855237282e-12
1.39077125872e-12
1.48873857435e-12
1.59275136385e-12
1.70311767621e-12
1.8201566828e-12
1.94419877556e-12
2.07558564429e-12
2.21467033161e-12
2.36181726438e-12
2.51740225989e-12
2.68181250582e-12
2.85544651235e-12
3.03871403545e-12
3.23203596997e-12
3.43584421169e-12
3.65058148725e-12
3.87670115125e-12
4.1146669499e-12
4.36495275097e-12
4.6280422397e-12
4.90442858115e-12
5.19461404939e-12
5.49910962458e-12
5.81843455965e-12
6.15311591853e-12
6.5036880891e-12
6.87069227453e-12
7.25467596799e-12
7.65619241695e-12
8.07580008473e-12
8.51406211885e-12
8.97154583801e-12
9.44882225222e-12
9.9464656335e-12
1.04650531591e-11
1.10051646532e-11
1.15673824593e-11
1.21522914826e-11
1.27604794497e-11
1.33925374432e-11
1.40490607837e-11
1.47306503446e-11
1.54379144065e-11
1.61714711822e-11
1.69319521735e-11
1.77200065596e-11
1.85363068631e-11
1.93815562051e-11
2.0256497533e-11
2.11619253109e-11
2.20987002873e-11
2.30677681252e-11
2.40701828977e-11
2.51071367305e-11
2.61799972349e-11
2.72903548108e-11
2.84400824027e-11
2.96314107458e-11
3.08670222308e-11
3.21501653632e-11
3.34847870538e-11
3.48756656175e-11
3.63284877e-11
3.7849707419e-11
3.94457567435e-11
4.11205191939e-11
4.28685580344e-11
4.4659507112e-11
2.807248221e-17
8.45382244136e-17
1.42030673357e-16
2.01318185927e-16
2.63147913694e-16
3.28293790878e-16
3.97563792241e-16
4.71807725089e-16
5.51925483726e-16
6.38875746096e-16
7.3368513228e-16
8.37457867684e-16
9.5138600648e-16
1.07676027817e-15
1.21498162486e-15
1.36757350054e-15
1.53619500673e-15
1.72265494219e-15
1.92892684725e-15
2.15716512687e-15
2.40972233981e-15
2.68916774481e-15
2.99830719855e-15
3.34020450379e-15
3.71820431027e-15
4.13595667482e-15
4.59744339136e-15
5.1070062057e-15
5.66937703426e-15
6.28971031003e-15
6.97361758345e-15
7.72720451001e-15
8.55711036049e-15
9.4705501939e-15
1.04753598368e-14
1.15800438169e-14
1.2793826401e-14
1.41267058934e-14
1.55895123495e-14
1.7193968866e-14
1.89527566091e-14
2.08795837434e-14
2.29892584275e-14
2.52977660401e-14
2.78223508022e-14
3.05816019608e-14
3.35955446948e-14
3.68857359059e-14
4.04753650505e-14
4.43893601654e-14
4.86544992365e-14
5.32995270512e-14
5.83552776681e-14
6.38548026314e-14
6.98335050427e-14
7.63292795965e-14
8.33826586697e-14
9.10369645417e-14
9.93384678071e-14
1.08336552024e-13
1.18083884623e-13
1.2863659408e-13
1.40054453334e-13
1.52401069406e-13
1.65744079153e-13
1.80155351056e-13
1.95711192915e-13
2.1249256529e-13
2.30585300506e-13
2.5008032698e-13
2.71073898608e-13
2.93667828922e-13
3.17969729643e-13
3.44093253277e-13
3.72158339297e-13
4.02291463438e-13
4.34625889598e-13
4.69301923751e-13
5.06467169264e-13
5.46276782948e-13
5.8889373111e-13
6.3448904485e-13
6.83242073755e-13
7.35340737139e-13
7.90981771879e-13
8.50370975879e-13
9.13723446124e-13
9.81263810257e-13
1.05322645053e-12
1.12985571896e-12
1.21140614254e-12
1.29814261705e-12
1.39034058849e-12
1.48828622041e-12
1.59227654618e-12
1.70261960444e-12
1.81963455661e-12
1.94365178488e-12
2.07501296925e-12
2.21407114234e-12
2.36119072028e-12
2.51674750861e-12
2.68112868154e-12
2.85473273341e-12
3.03796940101e-12
3.23125955564e-12
3.43503506368e-12
3.64973861484e-12
3.87582351721e-12
4.11375345832e-12
4.36400223192e-12
4.6270534301e-12
4.90340010097e-12
5.19354437211e-12
5.49799704079e-12
5.81727713212e-12
6.15191142707e-12
6.5024339629e-12
6.8693855093e-12
7.2533130246e-12
7.65476909759e-12
8.07431138166e-12
8.51250202987e-12
8.96990714136e-12
9.447096232e-12
9.9446417449e-12
1.046311862e-11
1.10031039462e-11
1.15651767236e-11
1.21499177714e-11
1.27579098226e-11
1.33897378554e-11
1.4045989725e-11
1.4727257168e-11
1.54341372724e-11
1.61672345225e-11
1.69271635538e-11
1.77145527818e-11
1.85300491036e-11
1.93743239158e-11
2.0248080745e-11
2.11520648477e-11
2.20870752148e-11
2.30539794982e-11
2.40537324685e-11
2.50873986979e-11
2.61561802106e-11
2.72614497854e-11
2.84047902884e-11
2.95880395425e-11
3.08133381355e-11
3.20831728019e-11
3.34003975305e-11
3.47681918454e-11
3.61898672792e-11
3.7668332353e-11
3.92048286019e-11
4.07962114534e-11
4.24296753391e-11
4.40742773943e-11
2.80410528821e-17
8.44450121917e-17
1.41877486409e-16
2.01106300443e-16
2.62877598012e-16
3.27964221994e-16
3.97173123739e-16
4.71353177934e-16
5.51403417325e-16
6.38281702002e-16
7.33013853692e-16
8.36703299736e-16
9.50541281534e-16
1.07581768914e-15
1.21393258862e-15
1.36640851268e-15
1.53490358864e-15
1.72122558081e-15
1.927346928e-15
2.15542085979e-15
2.40779867903e-15
2.68704830134e-15
2.99597414632e-15
3.33763847882e-15
3.71538430288e-15
4.13285991466e-15
4.59404522512e-15
5.10327996737e-15
5.66529390758e-15
6.28523918313e-15
6.96872489536e-15
7.72185408885e-15
8.55126325326e-15
9.46416448752e-15
1.04683904704e-14
1.15724423851e-14
1.27855409483e-14
1.4117680699e-14
1.55796877032e-14
1.71832808346e-14
1.89411367935e-14
2.08669590268e-14
2.29755507136e-14
2.52828919825e-14
2.78062215255e-14
3.05641227718e-14
3.35766147861e-14
3.68652480509e-14
4.04532052906e-14
4.436540749e-14
4.86286252565e-14
5.32715956653e-14
5.83251447251e-14
6.38223155861e-14
6.97985026091e-14
7.62915913971e-14
8.33421048834e-14
9.09933555508e-14
9.92916038441e-14
1.08286222821e-13
1.18029869062e-13
1.28578659851e-13
1.39992356595e-13
1.52334554456e-13
1.6567287811e-13
1.80079183546e-13
1.95629765779e-13
2.12405572302e-13
2.3049242211e-13
2.49981230046e-13
2.70968236211e-13
2.93555240139e-13
3.17849839387e-13
3.43965672149e-13
3.7202266347e-13
4.0214727458e-13
4.34472754821e-13
4.69139395601e-13
5.06294785747e-13
5.46094067594e-13
5.88700193081e-13
6.34284179081e-13
6.83025361144e-13
7.35111644772e-13
7.90739753291e-13
8.50115471353e-13
9.13453883028e-13
9.80979603391e-13
1.05292700251e-12
1.12954042062e-12
1.21107437327e-12
1.29779374522e-12
1.38997397175e-12
1.48790120598e-12
1.59187247101e-12
1.70219579531e-12
1.81919032999e-12
1.9431864466e-12
2.0745258139e-12
2.21356145225e-12
2.36065776409e-12
2.51619053921e-12
2.68054693329e-12
2.85412541845e-12
3.03733570444e-12
3.23059862933e-12
3.43434601836e-12
3.64902051012e-12
3.87507534905e-12
4.11297414335e-12
4.36319058801e-12
4.62620815229e-12
4.90251973168e-12
5.19262726458e-12
5.49704131411e-12
5.81628061608e-12
6.15087159469e-12
6.50134784786e-12
6.8682496051e-12
7.25212316156e-12
7.65352029271e-12
8.07299765563e-12
8.51111618409e-12
8.96844048624e-12
9.44553825592e-12
9.94297971098e-12
1.04613370747e-11
1.10011841201e-11
1.15630958015e-11
1.21476480007e-11
1.27554174251e-11
1.33869816971e-11
1.40429196877e-11
1.47238121535e-11
1.54302427514e-11
1.61627995173e-11
1.69220769143e-11
1.7708678574e-11
1.85232208765e-11
1.93663375421e-11
2.02386854308e-11
2.11409517734e-11
2.20738630764e-11
2.30381959497e-11
2.4034790076e-11
2.50645634497e-11
2.61285297958e-11
2.72278176145e-11
2.83636893903e-11
2.9537557726e-11
3.07509917828e-11
3.20057009844e-11
3.33034708724e-11
3.46460036222e-11
3.60345755172e-11
3.74693559483e-11
3.89481343876e-11
4.04641141209e-11
4.20025502028e-11
4.35369174166e-11
2.80149133381e-17
8.43670863974e-17
1.4174872692e-16
2.00927432112e-16
2.62648740907e-16
3.27684732889e-16
3.968415705e-16
4.70967364149e-16
5.5096041578e-16
6.37777880659e-16
7.32444889521e-16
8.36064180301e-16
9.49826295577e-16
1.07502040756e-15
1.21304583705e-15
1.36542433654e-15
1.53381321132e-15
1.7200193555e-15
1.9260142834e-15
2.15395023996e-15
2.40617747745e-15
2.68526278927e-15
2.99400939536e-15
3.33547827779e-15
3.71301106876e-15
4.13025459759e-15
4.59118720735e-15
5.10014695594e-15
5.66186182071e-15
6.28148203004e-15
6.96461464952e-15
7.71736055437e-15
8.54635392441e-15
9.45880440113e-15
1.04625420512e-14
1.15660652834e-14
1.27785918711e-14
1.41101132325e-14
1.5571452129e-14
1.71743239376e-14
1.89314016625e-14
2.08563848476e-14
2.2964072555e-14
2.52704405747e-14
2.77927230311e-14
3.05494985506e-14
3.35607811523e-14
3.68481160248e-14
4.04346803434e-14
4.43453892832e-14
4.86070073762e-14
5.32482653516e-14
5.82999825974e-14
6.37951953647e-14
6.97692908344e-14
7.62601471464e-14
8.33082794868e-14
9.09569923064e-14
9.92525377348e-14
1.08244280232e-13
1.17984867503e-13
1.28530407679e-13
1.39940652749e-13
1.52279188191e-13
1.65613628746e-13
1.80015820222e-13
1.9556204722e-13
2.123332466e-13
2.3041522652e-13
2.49898890793e-13
2.70880468323e-13
2.93461747295e-13
3.17750313784e-13
3.43859794399e-13
3.71910102513e-13
4.0202768763e-13
4.34345787334e-13
4.69004681276e-13
5.0615194655e-13
5.45942713819e-13
5.88539923432e-13
6.34114580791e-13
6.82846010117e-13
7.34922105752e-13
7.90539580058e-13
8.49904206936e-13
9.13231059929e-13
9.80744743825e-13
1.05267961863e-12
1.12928001475e-12
1.21080043809e-12
1.29750576392e-12
1.38967141809e-12
1.48758354429e-12
1.59153915605e-12
1.70184627194e-12
1.81882403263e-12
1.94280279843e-12
2.07412422566e-12
2.21314132058e-12
2.36021846938e-12
2.51573144263e-12
2.68006737308e-12
2.85362470505e-12
3.03681311433e-12
3.23005339725e-12
3.43377732759e-12
3.64842748032e-12
3.87445702114e-12
4.11232946087e-12
4.36251837401e-12
4.62550708097e-12
4.90178829356e-12
5.19186372375e-12
5.4962436559e-12
5.81544648316e-12
6.14999820891e-12
6.50043191498e-12
6.86728719856e-12
7.25110958083e-12
7.65244989079e-12
8.07186362893e-12
8.50991031666e-12
8.96715283835e-12
9.44415678507e-12
9.94148981044e-12
1.04597210117e-11
1.09994203518e-11
1.15611581408e-11
1.21455046007e-11
1.27530295387e-11
1.33843021641e-11
1.40398910846e-11
1.47203645301e-11
1.54262908563e-11
1.6158239391e-11
1.69167816963e-11
1.77024933284e-11
1.85159561869e-11
1.93577615521e-11
2.02285139102e-11
2.11288356581e-11
2.20593727482e-11
2.30208012718e-11
2.40138348545e-11
2.50392325047e-11
2.60978061449e-11
2.71904263306e-11
2.83180233958e-11
2.94815790822e-11
3.06820999518e-11
3.19205574886e-11
3.31977691149e-11
3.45141771341e-11
3.58694568179e-11
3.72618519906e-11
3.86871119038e-11
4.01369412975e-11
4.15971139547e-11
4.30460798544e-11
2.79935721871e-17
8.43033137364e-17
1.41643058015e-16
2.00780306627e-16
2.62460235734e-16
3.27454400779e-16
3.96568373601e-16
4.70649659136e-16
5.50595960442e-16
6.37363845343e-16
7.31977865566e-16
8.35540182254e-16
9.4924075626e-16
1.074368166e-15
1.21232111965e-15
1.36462073199e-15
1.5329236396e-15
1.71903603146e-15
1.92492867513e-15
2.15275302213e-15
2.4048584799e-15
2.68381094076e-15
2.99241266273e-15
3.33372360031e-15
3.71108428786e-15
4.12814038177e-15
4.58886897228e-15
5.09760677965e-15
5.65908035377e-15
6.27843840067e-15
6.96128636344e-15
7.71372338949e-15
8.54238181997e-15
9.45446934156e-15
1.04578139442e-14
1.15609118329e-14
1.27729784436e-14
1.41040027191e-14
1.55648048001e-14
1.71670972933e-14
1.89235502766e-14
2.0847860206e-14
2.29548228884e-14
2.52604106864e-14
2.7781854119e-14
3.0537728024e-14
3.35480424442e-14
3.68343383989e-14
4.04197886973e-14
4.43293039474e-14
4.85896439087e-14
5.32295343305e-14
5.82797894095e-14
6.37734399929e-14
6.97458676424e-14
7.62349446635e-14
8.32811801912e-14
9.09278724098e-14
9.92212669677e-14
1.08210721631e-13
1.17948877203e-13
1.28491834705e-13
1.39899338818e-13
1.52234967516e-13
1.65566327847e-13
1.79965257753e-13
1.95508033792e-13
2.12275584628e-13
2.30353710072e-13
2.49833305458e-13
2.70810591092e-13
2.93387346455e-13
3.17671148833e-13
3.43775615973e-13
3.7182065234e-13
4.01932698495e-13
4.34244983069e-13
4.68897776766e-13
5.06038647769e-13
5.45822717874e-13
5.88412918637e-13
6.33980246751e-13
6.82704017837e-13
7.3477211775e-13
7.90381250495e-13
8.49737181749e-13
9.13054976958e-13
9.80559232936e-13
1.05248430181e-12
1.12907450617e-12
1.21058434413e-12
1.29727868309e-12
1.38943294088e-12
1.48733325292e-12
1.59127662398e-12
1.70157106322e-12
1.81853570099e-12
1.94250088598e-12
2.07380826124e-12
2.21281081753e-12
2.35987292268e-12
2.51537032528e-12
2.67969013141e-12
2.85323075291e-12
3.03640182581e-12
3.22962409753e-12
3.43332928166e-12
3.647959879e-12
3.87396896383e-12
4.11181993435e-12
4.3619862264e-12
4.62495098981e-12
4.90120672673e-12
5.19125489173e-12
5.49560545348e-12
5.81477641827e-12
6.14929331593e-12
6.49968864904e-12
6.86650130692e-12
7.2502759462e-12
7.65156234071e-12
8.07091470391e-12
8.50889098797e-12
8.96605216491e-12
9.44296149596e-12
9.94018379706e-12
1.045828471e-11
1.09978299901e-11
1.1559384825e-11
1.21435131991e-11
1.27507773241e-11
1.33817371575e-11
1.40369500347e-11
1.47169704449e-11
1.54223499843e-11
1.61536375248e-11
1.69113796377e-11
1.76961213139e-11
1.85084070191e-11
1.93487821132e-11
2.02177946433e-11
2.11159974813e-11
2.20439507081e-11
2.30022240346e-11
2.39913988486e-11
2.50120691643e-11
2.60648402219e-11
2.71503226431e-11
2.82691186787e-11
2.94217949033e-11
3.06088322705e-11
3.18305391317e-11
3.30869049741e-11
3.4377361902e-11
3.57004085616e-11
3.70530433767e-11
3.84299681996e-11
3.98225992368e-11
4.12181258347e-11
4.25992423929e-11
2.79767233056e-17
8.4252920034e-17
1.41559479705e-16
2.00663888529e-16
2.62311117895e-16
3.27272374955e-16
3.96352803287e-16
4.70399444372e-16
5.50309528209e-16
6.37039151651e-16
7.31612400644e-16
8.35130974127e-16
9.4878437037e-16
1.0738606999e-15
1.21175819254e-15
1.36399746913e-15
1.53223465201e-15
1.71827539097e-15
1.92408988518e-15
2.15182898461e-15
2.40384145796e-15
2.68269251805e-15
2.99118369886e-15
3.33237418283e-15
3.70960368057e-15
4.12651696955e-15
4.58709020234e-15
5.09565909913e-15
5.65694914376e-15
6.27610790649e-15
6.95873962125e-15
7.71094214903e-15
8.53934646359e-15
9.45115879926e-15
1.04542056049e-14
1.15569814515e-14
1.27687000446e-14
1.40993484956e-14
1.55597450095e-14
1.71616001487e-14
1.89175818342e-14
2.08413842491e-14
2.29478008076e-14
2.52528013556e-14
2.77736137686e-14
3.05288101105e-14
3.35383975165e-14
3.68239139618e-14
4.04085290723e-14
4.43171501309e-14
4.85765334284e-14
5.32154010998e-14
5.82645635804e-14
6.37570478082e-14
6.97282312872e-14
7.62159821166e-14
8.32608050772e-14
9.09059938521e-14
9.91977894432e-14
1.08185544828e-13
1.17921895878e-13
1.28462938552e-13
1.39868412331e-13
1.52201889866e-13
1.65530972761e-13
1.79927493397e-13
1.95467722669e-13
2.12232583479e-13
2.30307869785e-13
2.49784470994e-13
2.70758601412e-13
2.93332034468e-13
3.17612341351e-13
3.43713133679e-13
3.7175430977e-13
4.01862304031e-13
4.3417033895e-13
4.68818679108e-13
5.05954886598e-13
5.45734077171e-13
5.88319176393e-13
6.33881175032e-13
6.82599382847e-13
7.34661679906e-13
7.9026476449e-13
8.49614396606e-13
9.12925636073e-13
9.80423074086e-13
1.05234105713e-12
1.12892390208e-12
1.21042610115e-12
1.29711251563e-12
1.38925855686e-12
1.48715035324e-12
1.59108490179e-12
1.70137020298e-12
1.81832537719e-12
1.94228076146e-12
2.07357798509e-12
2.21257002239e-12
2.35962122132e-12
2.5151073063e-12
2.67941535391e-12
2.85294373982e-12
3.03610205566e-12
3.22931099425e-12
3.43300220203e-12
3.64761809725e-12
3.87361165269e-12
4.1114461419e-12
4.3615948477e-12
4.62454073229e-12
4.9007760679e-12
5.19080202764e-12
5.49512823588e-12
5.8142722781e-12
6.14875917015e-12
6.49912078729e-12
6.86589525361e-12
7.24962629279e-12
7.65086254181e-12
8.07015682931e-12
8.50806542127e-12
8.96514723716e-12
9.44196304027e-12
9.93907460724e-12
1.04570438822e-11
1.09964321226e-11
1.15577990446e-11
1.21417019766e-11
1.27486950332e-11
1.337932832e-11
1.40341471823e-11
1.47136915132e-11
1.54184951336e-11
1.61490852576e-11
1.69059820529e-11
1.76896982975e-11
1.85007391235e-11
1.93396018126e-11
2.02067755766e-11
2.11027411895e-11
2.20279702497e-11
2.29829236971e-11
2.39680489791e-11
2.49837749002e-11
2.60305026346e-11
2.71085905378e-11
2.82183291148e-11
2.93599006092e-11
3.05333149353e-11
3.17383098886e-11
3.29741987723e-11
3.42396435138e-11
3.55323285979e-11
3.68485171051e-11
3.81824979172e-11
3.95260039994e-11
4.08678166828e-11
4.21939530071e-11
2.79641513838e-17
8.42153301392e-17
1.41497200525e-16
2.00577306402e-16
2.6220053095e-16
3.27137866619e-16
3.96194160308e-16
4.7021611337e-16
5.50100598739e-16
6.36803354458e-16
7.31348112742e-16
8.34836225323e-16
9.48456848153e-16
1.07349775113e-15
1.2113568213e-15
1.36355433064e-15
1.53174604268e-15
1.71773723485e-15
1.9234977171e-15
2.15117793019e-15
2.40312621077e-15
2.681907314e-15
2.99032228808e-15
3.33142979902e-15
3.70856900802e-15
4.12538410776e-15
4.58585062834e-15
5.09430362756e-15
5.65546788461e-15
6.27449022065e-15
6.9569740737e-15
7.70901645983e-15
8.53724745654e-15
9.44887234835e-15
1.04517165784e-14
1.1554273654e-14
1.27657561565e-14
1.40961500107e-14
1.55562721701e-14
1.71578318789e-14
1.89134956711e-14
2.08369562717e-14
2.29430055639e-14
2.52476117885e-14
2.77680011391e-14
3.05227439201e-14
3.35318454282e-14
3.68168417195e-14
4.04009004193e-14
4.43089267279e-14
4.85676747708e-14
5.32058644346e-14
5.8254303823e-14
6.37460174598e-14
6.97163803526e-14
7.62032580229e-14
8.32471525943e-14
9.08913550143e-14
9.91821034732e-14
1.08168748063e-13
1.17903921701e-13
1.28443717323e-13
1.39847871324e-13
1.52179953212e-13
1.65507561392e-13
1.79902524999e-13
1.95441111641e-13
2.12204240891e-13
2.30277703354e-13
2.49752385059e-13
2.70724496919e-13
2.93295808961e-13
3.17573888971e-13
3.43672345174e-13
3.71711072508e-13
4.01816502023e-13
4.34121852876e-13
4.68767386356e-13
5.05900661297e-13
5.45676790239e-13
5.88258695573e-13
6.33817364938e-13
6.82532104995e-13
7.3459079274e-13
7.9019012339e-13
8.49535853875e-13
9.12843040892e-13
9.80336272427e-13
1.05224989162e-12
1.12882821175e-12
1.2103257212e-12
1.29700727696e-12
1.38914828553e-12
1.48703486971e-12
1.59096401999e-12
1.70124372905e-12
1.81819310792e-12
1.94214248232e-12
2.07343346772e-12
2.2124190215e-12
2.35946347082e-12
2.51494251452e-12
2.67924319767e-12
2.85276385716e-12
3.03591403685e-12
3.22911437083e-12
3.43279643335e-12
3.647402554e-12
3.87338559679e-12
4.11120870195e-12
4.36134498908e-12
4.62427722066e-12
4.90049742483e-12
5.19050647651e-12
5.49481363615e-12
5.81393604528e-12
6.14839817859e-12
6.49873125191e-12
6.86547258622e-12
7.24916492751e-12
7.65035572286e-12
8.06959635327e-12
8.50744132396e-12
8.96444741318e-12
9.44117278088e-12
9.93817603892e-12
1.04560152846e-11
1.09952470997e-11
1.15564255175e-11
1.21401009602e-11
1.27468191482e-11
1.33771199842e-11
1.40315364114e-11
1.47105932455e-11
1.5414805974e-11
1.61446795149e-11
1.69007069124e-11
1.76833679392e-11
1.84931275508e-11
1.93304341049e-11
2.01957172119e-11
2.10893850089e-11
2.20118205396e-11
2.2963376758e-11
2.39443694348e-11
2.49550668837e-11
2.59956749055e-11
2.70663145936e-11
2.81669895798e-11
2.92975378335e-11
3.04575612199e-11
3.16463237399e-11
3.28626071449e-11
3.41045115813e-11
3.53691916557e-11
3.66525296814e-11
3.79487755539e-11
3.92502351154e-11
4.05471660038e-11
4.1828111097e-11
2.79556851263e-17
8.41900722633e-17
1.41455544991e-16
2.0051978633e-16
2.6212768721e-16
3.2705012957e-16
3.96091769148e-16
4.70099071822e-16
5.4996865792e-16
6.36656012673e-16
7.31184623963e-16
8.34655610729e-16
9.48257907372e-16
1.07327907143e-15
1.21111678392e-15
1.36329111412e-15
1.53145762323e-15
1.71742138406e-15
1.92315199721e-15
2.15079968721e-15
2.4027125658e-15
2.68145515276e-15
2.98982824905e-15
3.33089026018e-15
3.70798007241e-15
4.1247415879e-15