/*--------------------------------*- C++ -*----------------------------------*\
| =========                 |                                                 |
| \\      /  F ield         | OpenFOAM: The Open Source CFD Toolbox           |
|  \\    /   O peration     | Version:  2106                                  |
|   \\  /    A nd           | Website:  www.openfoam.com                      |
|    \\/     M anipulation  |                                                 |
\*---------------------------------------------------------------------------*/
FoamFile
{
    version     2.0;
    format      ascii;
    arch        "LSB;label=32;scalar=64";
    class       surfaceScalarField;
    location    "0.06";
    object      phi;
}
// * * * * * * * * * * * * * * * * * * * * * * * * * * * * * * * * * * * * * //

dimensions      [0 3 -1 0 0 0 0];

oriented        oriented;

internalField   nonuniform List<scalar> 
22100
(
3.38460840921e-05
1.61539159391e-05
2.24571151954e-05
1.13889702421e-05
1.62584111286e-05
6.19870510952e-06
1.27976451156e-05
3.46076667832e-06
1.08046432139e-05
1.99300225606e-06
9.60492597552e-06
1.19971745485e-06
8.85229403725e-06
7.52632162621e-07
8.36635737355e-06
4.85936891399e-07
8.04784789972e-06
3.1850954268e-07
7.8383854172e-06
2.09462193569e-07
7.70150194244e-06
1.36882798641e-07
7.61338617782e-06
8.81148563655e-08
7.5580535139e-06
5.53317577541e-08
7.52460740598e-06
3.34453711687e-08
7.50557081357e-06
1.90360547205e-08
7.49580868743e-06
9.76171440064e-09
7.49177075549e-06
4.03759286545e-09
7.49091270229e-06
8.57798672818e-10
7.49202698256e-06
-1.1143206874e-09
7.49415177584e-06
-2.12456743318e-09
7.49645865265e-06
-2.30642797312e-09
7.49862835356e-06
-2.16921966091e-09
7.50050324975e-06
-1.87459048922e-09
7.50198208275e-06
-1.47881799968e-09
7.50314720674e-06
-1.16540538828e-09
7.50402809583e-06
-8.81371146031e-10
7.50466251215e-06
-6.34981068399e-10
7.50510157121e-06
-4.39621400621e-10
7.50539388111e-06
-2.92799270584e-10
7.50558068034e-06
-1.87159523503e-10
7.50569479931e-06
-1.14307727498e-10
7.50576091352e-06
-6.60907222456e-11
7.50579542701e-06
-3.42346736655e-11
7.50580755407e-06
-1.1555568564e-11
7.50580714331e-06
1.24144663995e-12
7.50580037937e-06
7.68900171956e-12
7.50579029674e-06
1.08379001615e-11
7.50577859216e-06
1.20425770337e-11
7.50576622175e-06
1.21836193795e-11
7.50575369853e-06
1.19075572472e-11
7.50574127198e-06
1.16399591345e-11
7.50572897073e-06
1.16372859548e-11
7.50571661333e-06
1.19949679319e-11
7.50570388233e-06
1.26773512269e-11
7.50569043651e-06
1.3600003647e-11
7.50567598721e-06
1.47414074978e-11
7.50566024384e-06
1.61844696112e-11
7.50564281684e-06
1.80373110905e-11
7.50562318173e-06
2.03510435934e-11
7.50560065886e-06
2.3187152865e-11
7.50557447509e-06
2.66278866094e-11
7.50554382619e-06
3.08151797831e-11
7.50550786787e-06
3.59443005267e-11
7.50546564203e-06
4.21827859287e-11
7.50541604311e-06
4.95939470161e-11
7.50535791654e-06
5.8122165036e-11
7.50529029386e-06
6.75853637364e-11
7.50521269065e-06
7.75771971686e-11
7.50512534557e-06
8.74084169179e-11
7.50503020395e-06
9.5341271315e-11
7.50493301685e-06
9.74754094531e-11
7.50484581392e-06
8.7434420744e-11
7.50478087802e-06
6.50237742028e-11
7.50475572986e-06
2.51250830466e-11
7.50480834955e-06
-5.27367129316e-11
7.50500169689e-06
-1.93590865324e-10
7.50543857127e-06
-4.37283623069e-10
7.50628295786e-06
-8.44949334369e-10
7.50779222254e-06
-1.50984833728e-09
7.5103517278e-06
-2.55991543532e-09
7.51443152917e-06
-4.07991725967e-09
7.52146871834e-06
-7.03712421891e-09
7.53315185901e-06
-1.16831326266e-08
7.55282574675e-06
-1.96740769632e-08
7.58855958995e-06
-3.5734211563e-08
7.66259511688e-06
-7.40359503938e-08
7.84000845272e-06
-1.77413832313e-07
8.32367030697e-06
-4.83662484427e-07
9.88989936743e-06
-1.56622977749e-06
-5.89461611117e-06
1.57845148961e-05
5.02175529862e-05
1.59363642547e-05
4.42440251611e-05
1.73624998939e-05
3.77794638304e-05
1.26632676254e-05
3.26463711337e-05
8.59386007937e-06
2.89389617466e-05
5.70041210111e-06
2.63617094829e-05
3.77697013253e-06
2.45916153568e-05
2.52272662002e-06
2.33805836853e-05
1.69696856205e-06
2.25548098337e-05
1.1442828063e-06
2.19949292527e-05
7.69341582515e-07
2.16188943128e-05
5.12916189098e-07
2.13698991995e-05
3.37108423952e-07
2.12083214748e-05
2.1690821037e-07
2.11063949375e-05
1.35370962752e-07
2.10446404705e-05
8.07898062786e-08
2.10094292583e-05
4.4972359562e-08
2.09913259161e-05
2.21405497227e-08
2.0984042061e-05
8.14160366854e-09
2.09832514048e-05
-3.23303158359e-10
2.09852596795e-05
-4.13216350404e-09
2.09888060896e-05
-5.85213862344e-09
2.09927644267e-05
-6.12714129988e-09
2.09965164492e-05
-5.6266554657e-09
2.09998117661e-05
-4.77463540049e-09
2.10024756253e-05
-3.83007906935e-09
2.10045260073e-05
-2.9327012495e-09
2.10060472462e-05
-2.15716236124e-09
2.100713784e-05
-1.53103383824e-09
2.10078965909e-05
-1.05213941438e-09
2.10084131799e-05
-7.04022355047e-10
2.1008766023e-05
-4.67040741815e-10
2.10089814563e-05
-2.80969856726e-10
2.10090982128e-05
-1.49972709743e-10
2.10091547633e-05
-6.67213470682e-11
2.10091769059e-05
-1.94258501881e-11
2.10091800345e-05
5.72566893286e-12
2.1009172394e-05
1.89743058313e-11
2.10091589437e-05
2.51702983994e-11
2.10091426371e-05
2.75046247291e-11
2.10091251164e-05
2.81847194838e-11
2.10091071891e-05
2.85259576187e-11
2.10090890535e-05
2.92169524038e-11
2.10090704656e-05
3.0526631575e-11
2.10090509554e-05
3.24827208695e-11
2.10090300505e-05
3.50468357305e-11
2.10090073593e-05
3.82248211001e-11
2.10089824759e-05
4.21076049865e-11
2.10089548927e-05
4.67779242912e-11
2.10089240574e-05
5.22250866379e-11
2.10088893974e-05
5.85523642296e-11
2.10088504397e-05
6.58969158289e-11
2.100880688e-05
7.44146635354e-11
2.10087585668e-05
8.42195521161e-11
2.10087055149e-05
9.52439688198e-11
2.1008648069e-05
1.07102491639e-10
2.10085872727e-05
1.18986661542e-10
2.10085255059e-05
1.29403874874e-10
2.10084675566e-05
1.35599311729e-10
2.10084218613e-05
1.33299112211e-10
2.10084030269e-05
1.14531713515e-10
2.10084370902e-05
6.37777622396e-11
2.10085719936e-05
-4.72603863884e-11
2.10088820585e-05
-2.45022429411e-10
2.10094905992e-05
-5.83603127142e-10
2.10105283348e-05
-1.09090465428e-09
2.10121690722e-05
-1.83503728407e-09
2.10148014098e-05
-3.07056462261e-09
2.10190229995e-05
-5.06750811205e-09
2.10257859651e-05
-8.27353217922e-09
2.10366552305e-05
-1.34294846547e-08
2.10543797336e-05
-2.18044985466e-08
2.1083376696e-05
-3.60343032733e-08
2.11313376893e-05
-5.9644604198e-08
2.12126401312e-05
-1.00977204438e-07
2.13555789208e-05
-1.78673786138e-07
2.16179927231e-05
-3.36450652778e-07
2.21188634606e-05
-6.78285669511e-07
2.30958878565e-05
-1.46068800666e-06
2.49273406036e-05
-3.39768334918e-06
-7.77817385763e-06
2.68108979597e-05
5.35170892133e-05
1.2419276105e-05
5.29349795175e-05
1.79446111032e-05
4.96540426949e-05
1.59442054451e-05
4.58409051257e-05
1.24069983499e-05
4.24418780128e-05
9.09943979648e-06
3.97328081881e-05
6.48604048951e-06
3.76938435181e-05
4.56169163209e-06
3.62084014985e-05
3.18241049299e-06
3.51490426381e-05
2.20364098854e-06
3.44060784289e-05
1.51230461465e-06
3.38931824153e-05
1.02581082379e-06
3.35451504423e-05
6.85139142564e-07
3.33137675721e-05
4.48290094794e-07
3.31638416447e-05
2.85296142532e-07
3.30699414983e-05
1.74689307144e-07
3.30138704877e-05
1.01042807456e-07
3.29827583989e-05
5.32522472064e-08
3.29675863135e-05
2.33136564198e-08
3.29619022113e-05
5.36116433226e-09
3.29620511716e-05
-4.28050916416e-09
3.29649194542e-05
-8.71982168141e-09
3.29689274051e-05
-1.01347726768e-08
3.29730902546e-05
-9.78958235646e-09
3.29768794742e-05
-8.56429710981e-09
3.29800621273e-05
-7.01342068391e-09
3.29825876803e-05
-5.45906816596e-09
3.29845017186e-05
-4.07203932781e-09
3.29858941691e-05
-2.92424489392e-09
3.29868675181e-05
-2.02606127886e-09
3.29875181472e-05
-1.35493365697e-09
3.29879266059e-05
-8.75405024258e-10
3.29881981732e-05
-5.51997747993e-10
3.29883872897e-05
-3.38104927304e-10
3.29884870815e-05
-1.65226118622e-10
3.29885360302e-05
-6.70776309411e-11
3.29885550207e-05
-1.23127242749e-11
3.29885558721e-05
1.84528627684e-11
3.29885463552e-05
3.43220256044e-11
3.29885313473e-05
4.16390373671e-11
3.29885136733e-05
4.48451356001e-11
3.29884948132e-05
4.65922438023e-11
3.29884753194e-05
4.83139712486e-11
3.29884551484e-05
5.06721292947e-11
3.29884339836e-05
5.38934530886e-11
3.29884114797e-05
5.80301631421e-11
3.29883873164e-05
6.31163030658e-11
3.29883610501e-05
6.93132647622e-11
3.29883321393e-05
7.66860764259e-11
3.29883002185e-05
8.49784136074e-11
3.29882650335e-05
9.42494341182e-11
3.29882265677e-05
1.04575192007e-10
3.29881851172e-05
1.15930465685e-10
3.29881413158e-05
1.28064383052e-10
3.29880962825e-05
1.40307113248e-10
3.29880520228e-05
1.513398267e-10
3.29880121503e-05
1.58802046558e-10
3.29879830362e-05
1.5850265172e-10
3.29879752388e-05
1.43523048449e-10
3.29880041929e-05
1.04655941247e-10
3.29880962597e-05
2.28446084817e-11
3.29883010514e-05
-1.40726959452e-10
3.29887058566e-05
-4.51915071192e-10
3.29893696665e-05
-9.08811200127e-10
3.29903486441e-05
-1.56271551427e-09
3.29919091041e-05
-2.65173142216e-09
3.29944728881e-05
-4.39946722555e-09
3.29985854568e-05
-7.18394758708e-09
3.30051351177e-05
-1.16179150256e-08
3.30155615479e-05
-1.87003932156e-08
3.30322429992e-05
-3.01110595748e-08
3.30591930986e-05
-4.87546814179e-08
3.31023525727e-05
-7.9194043245e-08
3.31726650485e-05
-1.29957603334e-07
3.32890018202e-05
-2.1731470028e-07
3.34838272892e-05
-3.73500123063e-07
3.38116089326e-05
-6.64233269849e-07
3.43544568163e-05
-1.22113462312e-06
3.51957557848e-05
-2.30198802107e-06
3.62146242563e-05
-4.41655256622e-06
-8.01948893224e-06
3.64559391212e-05
5.35105775523e-05
8.9086994737e-06
5.55743216901e-05
1.58808683718e-05
5.52428608175e-05
1.62756673071e-05
5.35987964089e-05
1.40510635554e-05
5.15440466693e-05
1.11541902282e-05
4.9584455339e-05
8.44563239775e-06
4.79315314437e-05
6.21461577657e-06
4.66295760686e-05
4.4843655943e-06
4.56475825428e-05
3.18563368077e-06
4.49294225467e-05
2.23046340899e-06
4.44170702048e-05
1.53816190802e-06
4.40596876555e-05
1.04252062592e-06
4.38160477231e-05
6.91929207358e-07
4.36541465575e-05
4.47196607805e-07
4.35498336579e-05
2.79001534719e-07
4.34852612298e-05
1.65614610444e-07
4.34474684818e-05
9.10446059952e-08
4.34271961205e-05
4.35860087606e-08
4.34178372447e-05
1.47204178739e-08
4.3415084776e-05
-1.52745169075e-09
4.34160974571e-05
-9.73199392171e-09
4.34188435142e-05
-1.28805985664e-08
4.3422169614e-05
-1.3115805473e-08
4.34254231827e-05
-1.18183039609e-08
4.3428280096e-05
-9.87099455419e-09
4.34306207129e-05
-7.80048743713e-09
4.34324422457e-05
-5.89442677278e-09
4.34338014604e-05
-4.28424477939e-09
4.34347788884e-05
-3.0040747237e-09
4.34354577703e-05
-2.03408803667e-09
4.34359112855e-05
-1.32878165469e-09
4.34361903859e-05
-8.30495771162e-10
4.34363379902e-05
-4.84685307473e-10
4.3436407038e-05
-2.33009174987e-10
4.34364435925e-05
-1.02429573663e-10
4.34364603423e-05
-2.82483699913e-11
4.34364623795e-05
1.66107795144e-11
4.34364553505e-05
4.09238518287e-11
4.34364431182e-05
5.30552141836e-11
4.3436427904e-05
5.92042257209e-11
4.34364109107e-05
6.29656159275e-11
4.34363926318e-05
6.63066972594e-11
4.34363730786e-05
7.02301950292e-11
4.34363520282e-05
7.51859922547e-11
4.34363291808e-05
8.13479165662e-11
4.34363042021e-05
8.87897378055e-11
4.34362768202e-05
9.75495524215e-11
4.34362467809e-05
1.07583326871e-10
4.34362138408e-05
1.18591574072e-10
4.3436177918e-05
1.305676795e-10
4.34361392977e-05
1.43386728025e-10
4.34360986665e-05
1.56694791065e-10
4.34360571441e-05
1.69720481063e-10
4.34360164496e-05
1.810717791e-10
4.34359792344e-05
1.88495195933e-10
4.34359494781e-05
1.88409174888e-10
4.34359327892e-05
1.75113998205e-10
4.34359371875e-05
1.39288269815e-10
4.34359781351e-05
6.4095431142e-11
4.34360787414e-05
-7.73382363982e-11
4.34362535581e-05
-3.1521568149e-10
4.34365873033e-05
-7.85449489576e-10
4.34372366408e-05
-1.5580632995e-09
4.34383878149e-05
-2.71400282219e-09
4.34402490549e-05
-4.51337754106e-09
4.344318954e-05
-7.34062405922e-09
4.34478126482e-05
-1.1807819039e-08
4.3455075149e-05
-1.8881000536e-08
4.34664932539e-05
-3.01187941826e-08
4.34844532924e-05
-4.80712703018e-08
4.3512658008e-05
-7.69596450726e-08
4.35573280489e-05
-1.23864571849e-07
4.36284353793e-05
-2.01065633772e-07
4.37415919223e-05
-3.30471972627e-07
4.39198866439e-05
-5.51795624781e-07
4.41928552123e-05
-9.37202781201e-07
4.45840103183e-05
-1.61229080142e-06
4.50611101577e-05
-2.77908889411e-06
4.53786245263e-05
-4.73406750575e-06
-7.5612075463e-06
4.4920343146e-05
5.27351638099e-05
6.17353651875e-06
5.5731067621e-05
1.28849659292e-05
5.73118746074e-05
1.46948613458e-05
5.76119361089e-05
1.37510029446e-05
5.71354312323e-05
1.16306958764e-05
5.63229200384e-05
9.25814413715e-06
5.54547228904e-05
7.08281304259e-06
5.46718811423e-05
5.26720689541e-06
5.40267522955e-05
3.83076159853e-06
5.35244435575e-05
2.73277099435e-06
5.3148812884e-05
1.91379150872e-06
5.28767569664e-05
1.31457567566e-06
5.26851981262e-05
8.83487344211e-07
5.25539921801e-05
5.78401860721e-07
5.24667575113e-05
3.66235470623e-07
5.24107466718e-05
2.21624791283e-07
5.23763450558e-05
1.25445858131e-07
5.23564754674e-05
6.34556566296e-08
5.23460351897e-05
2.51611217743e-08
5.23415268278e-05
2.98146253762e-09
5.23405026417e-05
-8.70738110838e-09
5.23413539844e-05
-1.37318034071e-08
5.23430489982e-05
-1.48110050467e-08
5.23449761324e-05
-1.37458932756e-08
5.23468005837e-05
-1.16961206759e-08
5.23483659346e-05
-9.36668403183e-09
5.23496231282e-05
-7.15253450545e-09
5.23505824328e-05
-5.24438118072e-09
5.23512816378e-05
-3.70387821552e-09
5.23517664173e-05
-2.51910746766e-09
5.23520843689e-05
-1.64652288046e-09
5.2352283667e-05
-1.02911650741e-09
5.23524093173e-05
-6.092762284e-10
5.23525110309e-05
-3.33487173199e-10
5.23525753676e-05
-1.65647270924e-10
5.23526163031e-05
-6.84828670834e-11
5.23526310832e-05
1.94452037981e-12
5.23526319318e-05
3.96509751745e-11
5.23526249082e-05
5.9370223397e-11
5.2352613591e-05
6.98377302604e-11
5.23525997731e-05
7.63302072482e-11
5.23525841593e-05
8.17394330689e-11
5.23525669016e-05
8.754212515e-11
5.23525479439e-05
9.440598365e-11
5.23525272641e-05
1.02498673942e-10
5.23525052106e-05
1.11503117234e-10
5.23524810244e-05
1.22491985105e-10
5.23524529412e-05
1.36365043079e-10
5.23524218842e-05
1.50162509366e-10
5.235238791e-05
1.64862465457e-10
5.23523512893e-05
1.80222537678e-10
5.2352312654e-05
1.95510707082e-10
5.23522730401e-05
2.09466818196e-10
5.23522340749e-05
2.20065926905e-10
5.2352198326e-05
2.24149906204e-10
5.23521700046e-05
2.16592999902e-10
5.23521571655e-05
1.8795534069e-10
5.23521847924e-05
1.11919325957e-10
5.23522598695e-05
-1.05546235338e-11
5.23523853247e-05
-2.02356063989e-10
5.23526179538e-05
-5.47490656269e-10
5.23530484652e-05
-1.21571710519e-09
5.23537046445e-05
-2.21413713374e-09
5.23547349015e-05
-3.74437156683e-09
5.2356353959e-05
-6.13283223271e-09
5.23588829103e-05
-9.8702138934e-09
5.23628066084e-05
-1.57321565523e-08
5.23688743023e-05
-2.49490990774e-08
5.23782474366e-05
-3.94921237301e-08
5.23927208521e-05
-6.254489069e-08
5.2415049424e-05
-9.92886519677e-08
5.24494377115e-05
-1.58253552642e-07
5.25020367464e-05
-2.53665527957e-07
5.25810462506e-05
-4.09482385641e-07
5.26952116643e-05
-6.65962052028e-07
5.28474759823e-05
-1.08946827771e-06
5.30175443902e-05
-1.78236040867e-06
5.3122009659e-05
-2.88355503679e-06
5.2933923495e-05
-4.54598165253e-06
-6.73086882228e-06
5.21035849873e-05
5.19835137177e-05
4.19002362458e-06
5.5058774118e-05
9.80970684511e-06
5.7638885129e-05
1.21147513711e-05
5.93264556443e-05
1.20634333591e-05
6.02290133777e-05
1.07281389116e-05
6.05945814193e-05
8.89257654498e-06
6.06508478004e-05
7.02654662459e-06
6.0556950152e-05
5.3611039849e-06
6.04082260375e-05
3.9794847944e-06
6.02550248621e-05
2.88597117854e-06
6.01200677929e-05
2.04874771563e-06
6.00107871537e-05
1.42385562804e-06
5.99270207511e-05
9.6725309196e-07
5.98653848994e-05
6.40036981784e-07
5.98215629679e-05
4.1005661252e-07
5.97913914315e-05
2.51795683579e-07
5.97712972719e-05
1.45539726266e-07
5.9758407305e-05
7.63457619789e-08
5.9750508904e-05
3.30599607881e-08
5.97459987774e-05
7.49206868438e-09
5.97436542779e-05
-6.36257774848e-09
5.97426609152e-05
-1.27384120429e-08
5.97424459898e-05
-1.45963171869e-08
5.97426381313e-05
-1.39385110689e-08
5.97430065911e-05
-1.20652889434e-08
5.97434173192e-05
-9.77830780817e-09
5.97437994508e-05
-7.53562536207e-09
5.97441213749e-05
-5.56716469657e-09
5.97443755619e-05
-3.95865213873e-09
5.97445686278e-05
-2.71234709267e-09
5.97447115129e-05
-1.78910727366e-09
5.97448176423e-05
-1.13450244848e-09
5.97448982849e-05
-6.88855334723e-10
5.97449549211e-05
-3.88955179965e-10
5.9744984745e-05
-1.94471643951e-10
5.974498312e-05
-6.627066754e-11
5.97449774334e-05
7.69425896461e-12
5.97449717143e-05
4.49944800866e-11
5.97449664155e-05
6.40945193741e-11
5.97449590236e-05
7.6710247323e-11
5.97449493307e-05
8.57025671923e-11
5.97449374749e-05
9.34939456383e-11
5.97449235072e-05
1.01594826168e-10
5.9744907354e-05
1.10819021563e-10
5.97448887534e-05
1.21539050204e-10
5.97448669764e-05
1.33861050009e-10
5.97448423781e-05
1.47700314639e-10
5.97448163696e-05
1.62887138399e-10
5.97447878972e-05
1.79013660755e-10
5.97447571757e-05
1.95883497876e-10
5.97447247861e-05
2.12881901793e-10
5.97446916459e-05
2.28865799198e-10
5.97446592013e-05
2.42015181391e-10
5.97446295999e-05
2.4963830621e-10
5.97446056889e-05
2.47949024071e-10
5.97445903141e-05
2.31926419426e-10
5.97445827215e-05
1.95731366745e-10
5.97445600566e-05
1.34986543129e-10
5.97445531961e-05
-3.1960669924e-12
5.97446187946e-05
-2.67482464966e-10
5.97448250251e-05
-7.53346578474e-10
5.97451099814e-05
-1.50042658198e-09
5.97455546266e-05
-2.65871006562e-09
5.97462494375e-05
-4.43934742908e-09
5.97473079794e-05
-7.19179829552e-09
5.97488979805e-05
-1.14607789022e-08
5.97512653812e-05
-1.81000543412e-08
5.97547714143e-05
-2.8455459843e-08
5.97599424938e-05
-4.46634376312e-08
5.9767529281e-05
-7.01320591518e-08
5.97785456645e-05
-1.10305737214e-07
5.97942213687e-05
-1.73930214822e-07
5.98156506679e-05
-2.7509582132e-07
5.9842563065e-05
-4.36395775252e-07
5.98700346214e-05
-6.93434685759e-07
5.98808142902e-05
-1.10024912987e-06
5.98304654346e-05
-1.73201267062e-06
5.96234634711e-05
-2.67655380268e-06
5.90831942957e-05
-4.0057124908e-06
-5.65826295037e-06
5.80105889124e-05
5.14373260557e-05
2.75269833979e-06
5.42658714974e-05
6.98116264483e-06
5.72496928446e-05
9.13093103197e-06
5.97899921052e-05
9.52313500483e-06
6.17198551923e-05
8.79827653313e-06
6.30875556511e-05
7.52487643852e-06
6.40151631961e-05
6.09893894922e-06
6.46264544344e-05
4.74981218415e-06
6.50212992303e-05
3.5846391991e-06
6.52723227658e-05
2.63494686507e-06
6.54294494359e-05
1.89162039014e-06
6.55259425178e-05
1.32736195447e-06
6.55836095511e-05
9.09585396722e-07
6.56166462328e-05
6.06999507674e-07
6.56342703023e-05
3.92431745677e-07
6.56424587485e-05
2.43606672155e-07
6.56450738663e-05
1.42924444809e-07
6.56445896332e-05
7.68302253004e-08
6.56425641134e-05
3.50858999741e-08
6.56399616123e-05
1.00949347299e-08
6.56373217678e-05
-3.72257274619e-09
6.5634940231e-05
-1.03569458388e-08
6.5632937067e-05
-1.25934340023e-08
6.56313374774e-05
-1.23394318463e-08
6.56301128175e-05
-1.08413877128e-08
6.56292092372e-05
-8.87568009872e-09
6.56285651241e-05
-6.89252614167e-09
6.56281212037e-05
-5.12413006693e-09
6.5627826166e-05
-3.66418081585e-09
6.56276385537e-05
-2.52485069351e-09
6.56275254867e-05
-1.67568413902e-09
6.56274597979e-05
-1.06804594573e-09
6.56274201034e-05
-6.48129435984e-10
6.562739597e-05
-3.63738019027e-10
6.56273790002e-05
-1.76605382952e-10
6.56273776314e-05
-6.43869942869e-11
6.56273893798e-05
-3.98568216733e-12
6.56273911147e-05
4.29877611845e-11
6.56273876305e-05
6.71753619881e-11
6.56273825243e-05
8.14749772473e-11
6.56273761208e-05
9.19212896328e-11
6.5627368218e-05
1.01372269663e-10
6.56273585093e-05
1.11420463964e-10
6.56273466955e-05
1.22886540895e-10
6.56273324967e-05
1.36114481776e-10
6.56273156301e-05
1.51167728222e-10
6.56272957919e-05
1.67949208133e-10
6.56272732551e-05
1.85752628496e-10
6.56272497597e-05
2.02785258374e-10
6.56272239348e-05
2.21984387378e-10
6.56271957727e-05
2.41314202851e-10
6.56271656805e-05
2.59164782618e-10
6.56271343212e-05
2.73461580619e-10
6.56271026804e-05
2.81242677954e-10
6.56270722734e-05
2.78315416767e-10
6.56270456524e-05
2.58688043593e-10
6.56270280489e-05
2.13719488262e-10
6.5627030002e-05
1.33568966205e-10
6.56270247868e-05
2.5679851021e-12
6.56270617814e-05
-3.0399527568e-10
6.5627115258e-05
-8.0641272622e-10
6.56272075228e-05
-1.59239139918e-09
6.56273447157e-05
-2.7958213387e-09
6.56275354027e-05
-4.63024712785e-09
6.56277796817e-05
-7.43652002234e-09
6.56280594056e-05
-1.17410008222e-08
6.56283205577e-05
-1.83616254392e-08
6.56284414126e-05
-2.85766465893e-08
6.56281729643e-05
-4.43953483894e-08
6.56270238146e-05
-6.89834552699e-08
6.56240093002e-05
-1.07292068274e-07
6.56171706507e-05
-1.67092548851e-07
6.56025981431e-05
-2.60524300446e-07
6.55724624371e-05
-4.06261111128e-07
6.55112263839e-05
-6.32199849556e-07
6.53888523114e-05
-9.77876328627e-07
6.51505076918e-05
-1.49366905852e-06
6.4705082874e-05
-2.23112942259e-06
6.39199522335e-05
-3.22058157278e-06
-4.41028625096e-06
6.26719762193e-05
5.10850541086e-05
1.66764494309e-06
5.3611826094e-05
4.45439179041e-06
5.66871226796e-05
6.05563539954e-06
5.96887908385e-05
6.52146770716e-06
6.22981435482e-05
6.18892446868e-06
6.44105011038e-05
5.41251916725e-06
6.60414937304e-05
4.46794618242e-06
6.72593123688e-05
3.53199306326e-06
6.81457054636e-05
2.69824549361e-06
6.87773279982e-05
2.00332375155e-06
6.92187285682e-05
1.45021930267e-06
6.95211571934e-05
1.02493276053e-06
6.97238703566e-05
7.06871518814e-07
6.98562277178e-05
4.74641318719e-07
6.9939805546e-05
3.08853188229e-07
6.99902312673e-05
1.93180535043e-07
7.00186678856e-05
1.14487821492e-07
7.00329701109e-05
6.25282886664e-08
7.00385666729e-05
2.94896809848e-08
7.00391307155e-05
9.53110205239e-09
7.00370591374e-05
-1.65098136971e-09
7.00338683329e-05
-7.16630128198e-09
7.00304505595e-05
-9.17599566287e-09
7.00272902809e-05
-9.17971692736e-09
7.00246077737e-05
-8.1597033962e-09
7.00224632554e-05
-6.73218579079e-09
7.00208277796e-05
-5.25811163482e-09
7.00196297615e-05
-3.92698896842e-09
7.0018783904e-05
-2.81883131601e-09
7.00182075747e-05
-1.94857000591e-09
7.00178285166e-05
-1.29622373318e-09
7.00175876525e-05
-8.2641888472e-10
7.00174401523e-05
-4.99646685165e-10
7.00173563214e-05
-2.78900142919e-10
7.00173162212e-05
-1.35682009602e-10
7.00172969917e-05
-4.46774198075e-11
7.00172785372e-05
1.45754371483e-11
7.00172754452e-05
4.59259384755e-11
7.00172754129e-05
6.69730259575e-11
7.00172751918e-05
8.15182653355e-11
7.00172738421e-05
9.32056593972e-11
7.00172709141e-05
1.04351251218e-10
7.00172662041e-05
1.1628580509e-10
7.00172596283e-05
1.29699739132e-10
7.00172511515e-05
1.44870748694e-10
7.00172407731e-05
1.61814210195e-10
7.00172285558e-05
1.80391125364e-10
7.00172142047e-05
2.00302651522e-10
7.00171960629e-05
2.21138983849e-10
7.00171755933e-05
2.42683216947e-10
7.00171531741e-05
2.63947713365e-10
7.00171290985e-05
2.83398348262e-10
7.00171037718e-05
2.98860834492e-10
7.00170777395e-05
3.07314721964e-10
7.00170515941e-05
3.04617657038e-10
7.00170254041e-05
2.85261122673e-10
7.0016997278e-05
2.42430326365e-10
7.00169627444e-05
1.68758254344e-10
7.00169260335e-05
3.98718988734e-11
7.00168665226e-05
-2.43986946901e-10
7.00168021103e-05
-7.41592919789e-10
7.00166930988e-05
-1.48310482672e-09
7.00164993203e-05
-2.60199912781e-09
7.00161526583e-05
-4.28383315664e-09
7.00155322054e-05
-6.8165157454e-09
7.0014428775e-05
-1.06380560967e-08
7.00124852576e-05
-1.64185078146e-08
7.00090983752e-05
-2.51901122625e-08
7.00032609834e-05
-3.85584220669e-08
6.99933041542e-05
-5.90273557514e-08
6.9976405615e-05
-9.03944726263e-08
6.99477993622e-05
-1.38487280973e-07
6.98994382771e-05
-2.12164245003e-07
6.98177499019e-05
-3.24573919738e-07
6.96800411837e-05
-4.94492456132e-07
6.9449203987e-05
-7.47040406961e-07
6.90674164935e-05
-1.1118824503e-06
6.84520907658e-05
-1.61580383474e-06
6.75003534974e-05
-2.2688437993e-06
-3.03552047703e-06
6.61255884824e-05
5.0880417448e-05
7.87228137901e-07
5.31703898255e-05
2.16442046099e-06
5.62173560021e-05
3.00867011804e-06
5.943711061e-05
3.30171390683e-06
6.24423304849e-05
3.1837051999e-06
6.50331115529e-05
2.8217383646e-06
6.71458766897e-05
2.35518095859e-06
6.87990785344e-05
1.87879088038e-06
7.00513037702e-05
1.44601982558e-06
7.09744107885e-05
1.08021629035e-06
7.16386292156e-05
7.86000389707e-07
7.21056083367e-05
5.57953023915e-07
7.24261516627e-05
3.86327428244e-07
7.26404094382e-05
2.60382766983e-07
7.27791683186e-05
1.70093732863e-07
7.28654821693e-05
1.06866474879e-07
7.29162656214e-05
6.37045057744e-08
7.29436894597e-05
3.51047303817e-08
7.29563330443e-05
1.68463083404e-08
7.29601058236e-05
5.75836294269e-09
7.29589543532e-05
-4.99623605524e-10
7.29554217009e-05
-3.63388056348e-09
7.29510670413e-05
-4.82172643429e-09
7.29467765977e-05
-4.88990429638e-09
7.29429954931e-05
-4.37950546669e-09
7.29398936194e-05
-3.6314076494e-09
7.29374808495e-05
-2.84642534646e-09
7.29356841099e-05
-2.13109467941e-09
7.29343964345e-05
-1.53159991517e-09
7.29335062775e-05
-1.05841525337e-09
7.29329122353e-05
-7.01783676259e-10
7.29325300271e-05
-4.43499716361e-10
7.29322940916e-05
-2.62813590913e-10
7.29321560313e-05
-1.39918698477e-10
7.29320794029e-05
-5.82935976163e-11
7.29320377271e-05
-2.53811605263e-12
7.29320231771e-05
2.92852749548e-11
7.29320176266e-05
5.14441608663e-11
7.29320175422e-05
6.69745848433e-11
7.29320195961e-05
7.94318654129e-11
7.29320218202e-05
9.10364909733e-11
7.29320231711e-05
1.03134817603e-10
7.29320231222e-05
1.16516479305e-10
7.29320214211e-05
1.3158773962e-10
7.29320179393e-05
1.48508208198e-10
7.29320125841e-05
1.67278906519e-10
7.29320052788e-05
1.87780353136e-10
7.29319959458e-05
2.0973472753e-10
7.2931984509e-05
2.32703770148e-10
7.29319709946e-05
2.56330579034e-10
7.29319553764e-05
2.79677581319e-10
7.2931937572e-05
3.01288743737e-10
7.29319173974e-05
3.19140365247e-10
7.29318945196e-05
3.30420757423e-10
7.29318683776e-05
3.31191142414e-10
7.29318382317e-05
3.1602869092e-10
7.29318035681e-05
2.77816146056e-10
7.29317649506e-05
2.08095075827e-10
7.29317031867e-05
1.02295225153e-10
7.29315785124e-05
-1.18757469593e-10
7.29313959225e-05
-5.58587023677e-10
7.29310919574e-05
-1.17890435195e-09
7.2930590528e-05
-2.1005974721e-09
7.29297572344e-05
-3.45085256279e-09
7.29283688228e-05
-5.4286103588e-09
7.29260568018e-05
-8.32653878089e-09
7.29222138591e-05
-1.25759751196e-08
7.29158451258e-05
-1.88218216364e-08
7.29053408156e-05
-2.80547120977e-08
7.28881185736e-05
-4.18058994477e-08
7.28599659858e-05
-6.224281844e-08
7.28140733046e-05
-9.25956236943e-08
7.27395347885e-05
-1.37626807582e-07
7.26190802788e-05
-2.04120627736e-07
7.24258748726e-05
-3.01288441709e-07
7.21195152442e-05
-4.40682017376e-07
7.16423404981e-05
-6.34708369655e-07
7.09190414543e-05
-8.92504722908e-07
6.98639554564e-05
-1.21375718035e-06
-1.57817311051e-06
6.84066089088e-05
5.07871727446e-05
5.59569991556e-11
5.29515411713e-05
5.2983753337e-11
5.59601833716e-05
2.87583845271e-11
5.92618833655e-05
1.46831539388e-11
6.24455851871e-05
3.94763101491e-12
6.52673284805e-05
-4.64210228382e-12
6.76225197654e-05
-1.03303283837e-11
6.95013236716e-05
-1.32381521203e-11
7.09473568486e-05
-1.36636275133e-11
7.20275849498e-05
-1.22009367955e-11
7.28135944025e-05
-9.59108462596e-12
7.33715533734e-05
-6.62807882391e-12
7.37578841144e-05
-4.07100365507e-12
7.40182687576e-05
-2.52409913974e-12
7.41883644969e-05
-2.36030236613e-12
7.42952345968e-05
-3.62356282238e-12
7.43589452651e-05
-5.94707956003e-12
7.43940588533e-05
-8.64878603549e-12
7.44109159984e-05
-1.0780628053e-11
7.44166854255e-05
-1.11727917244e-11
7.44161964879e-05
-1.0895190836e-11
7.44125732178e-05
-1.09047386414e-11
7.44077624373e-05
-1.14069772537e-11
7.44028839363e-05
-1.21290214574e-11
7.43985158556e-05
-1.24232785779e-11
7.43948948857e-05
-1.15855426931e-11
7.43920565534e-05
-9.16114244455e-12
7.43899297213e-05
-5.0417947305e-12
7.43883969301e-05
8.10291142307e-13
7.4387332067e-05
6.47498744811e-12
7.43866178858e-05
1.27787759891e-11
7.43861560284e-05
1.9019509533e-11
7.43858689469e-05
2.51069183383e-11
7.43856986141e-05
3.12827523205e-11
7.43856034423e-05
3.76077694963e-11
7.43855571483e-05
4.42384545389e-11
7.43855361874e-05
5.04884320758e-11
7.43855302644e-05
5.74622417332e-11
7.43855318901e-05
6.54169556716e-11
7.43855367872e-05
7.46545306968e-11
7.43855425694e-05
8.54369510462e-11
7.43855479638e-05
9.7946159278e-11
7.43855523334e-05
1.1232160736e-10
7.43855554044e-05
1.28631085994e-10
7.4385557079e-05
1.46885405736e-10
7.43855573235e-05
1.67039909651e-10
7.43855561163e-05
1.8897923341e-10
7.43855533841e-05
2.12469380205e-10
7.43855489685e-05
2.37120266746e-10
7.43855428035e-05
2.62472743753e-10
7.43855347602e-05
2.87687704212e-10
7.43855245448e-05
3.11525271493e-10
7.43855116159e-05
3.32258958089e-10
7.43854950193e-05
3.47470305698e-10
7.43854731011e-05
3.53810473993e-10
7.43854431241e-05
3.46831399174e-10
7.43854008677e-05
3.20884348958e-10
7.43853407343e-05
2.68969088192e-10
7.43852610512e-05
1.82634906902e-10
7.43851125645e-05
3.02829626677e-11
7.43848265387e-05
-2.72152802787e-10
7.43843862352e-05
-7.38408572755e-10
7.43836629441e-05
-1.3773628214e-09
7.4382481619e-05
-2.26983999446e-09
7.43805569733e-05
-3.50444989489e-09
7.43774221265e-05
-5.19222506958e-09
7.43723157458e-05
-7.47008410601e-09
7.43640028607e-05
-1.05094276812e-08
7.4350508216e-05
-1.45607279585e-08
7.43287428503e-05
-2.00413353431e-08
7.42937372312e-05
-2.72380876174e-08
7.42376061834e-05
-3.64655447806e-08
7.41480191084e-05
-4.80409157362e-08
7.40059995699e-05
-6.21024407826e-08
7.37830348728e-05
-7.83251477148e-08
7.3437808503e-05
-9.54567060296e-08
7.29137204878e-05
-1.10620809605e-07
7.21397478432e-05
-1.18531873074e-07
7.10379330835e-05
-1.11941759899e-07
-8.21127052445e-08
6.95418734541e-05
5.07871716758e-05
-7.87115201833e-07
5.2951540194e-05