/*--------------------------------*- C++ -*----------------------------------*\
| =========                 |                                                 |
| \\      /  F ield         | OpenFOAM: The Open Source CFD Toolbox           |
|  \\    /   O peration     | Version:  2106                                  |
|   \\  /    A nd           | Website:  www.openfoam.com                      |
|    \\/     M anipulation  |                                                 |
\*---------------------------------------------------------------------------*/
FoamFile
{
    version     2.0;
    format      ascii;
    arch        "LSB;label=32;scalar=64";
    class       volScalarField;
    location    "0.27";
    object      p;
}
// * * * * * * * * * * * * * * * * * * * * * * * * * * * * * * * * * * * * * //

dimensions      [0 2 -2 0 0 0 0];

internalField   nonuniform List<scalar> 
11200
(
150.24428586
147.31568369
146.201831489
145.674498148
145.307165699
145.012384025
144.750736427
144.50219369
144.257670518
144.012597208
143.764276574
143.510953884
143.251397107
142.984670664
142.710007698
142.426734823
142.134226259
141.831876063
141.51908546
141.195266318
140.859794977
140.512022432
140.15129037
139.776930957
139.388258635
138.984572116
138.565155202
138.129277469
137.676194985
137.205150964
136.715376342
136.206090297
135.676500374
135.1258027
134.553182661
133.95781605
133.338868927
132.695497821
132.026850139
131.33206459
130.61027149
129.860593001
129.08214333
128.274028803
127.435347805
126.565190543
125.662638592
124.726764146
123.756628897
122.751282494
121.709760431
120.631081216
119.514242633
118.35821692
117.161944596
115.924326604
114.644214359
113.320397252
111.951586873
110.536397171
109.073319456
107.560690798
105.996653784
104.379107806
102.705643035
100.973454421
99.1792316229
97.3190146746
95.3879994963
93.3802714069
91.2884412755
89.1031494312
86.8121975983
84.3993993491
81.8426689433
79.1103467526
76.1548336981
72.9035557497
69.2027965552
64.439513398
148.451244161
147.093069606
146.302096753
145.802080308
145.411089321
145.087203459
144.802678441
144.538071769
144.282578901
144.030051384
143.776661863
143.519896711
143.258018859
142.98975184
142.714095233
142.430214239
142.137371491
141.834884203
141.522093959
141.198338983
140.862969088
140.515308836
140.154714537
139.780518071
139.392023462
138.988523692
138.569299734
138.133619327
137.680737251
137.209895737
136.720324714
136.211241813
135.681852706
135.131357178
134.558942558
133.963784661
133.345049283
132.701892904
132.033462951
131.338898197
130.617329106
129.867878062
129.089659589
128.281780438
127.443339563
126.573427917
125.671128036
124.735513309
123.765646946
122.760580504
121.71935187
120.640982527
119.524473942
118.368802918
117.172915658
115.935720172
114.656076652
113.332785355
111.964571342
110.550065454
109.087780518
107.576081239
106.013143849
104.396905426
102.724998497
100.994682489
99.2027420336
97.3453397715
95.4178363651
93.4145472002
91.3284034453
89.1504488008
86.8691356205
84.4693280947
81.9306309532
79.2245358414
76.31024453
73.1299223393
69.58077798
65.4679461387
147.456054009
146.801853121
146.249496021
145.811876165
145.440249643
145.118144623
144.829040929
144.558802664
144.298334781
144.04184837
143.785458403
143.526483147
143.263010539
142.993613609
142.717171293
142.432754988
142.139555091
141.836833038
141.523890584
141.200050919
140.864652011
140.517054306
140.156513831
139.782376947
139.393951579
138.990528158
138.571385346
138.1357898
137.682996002
137.212246399
136.722771801
136.213792069
135.684516301
135.134137102
134.561836705
133.966793323
133.34817389
132.705135413
132.036826163
131.342385749
130.620945498
129.871628723
129.09355104
128.285820499
127.447537627
126.577795298
125.675678374
124.740263091
123.770616142
122.76579338
121.724837979
120.646777885
119.530622481
118.375358254
117.17994323
115.943299858
114.66430603
113.341783841
111.974485318
110.561074495
109.100104286
107.589987783
106.028961092
104.415055306
102.746033288
101.019301611
99.2318186825
97.3799859967
95.4594895013
93.4650907318
91.390340176
89.2271751042
86.9655006879
84.5924011714
82.0911555193
79.439903677
76.6106720223
73.5718442865
70.2874418359
66.7344420907
146.906292903
146.542911085
146.143011669
145.774019039
145.436399397
145.128293281
144.842925582
144.572216618
144.309838986
144.051165677
143.792778631
143.53214628
143.267368784
142.996978877
142.719800489
142.434851116
142.14127446
141.838294362
141.525183735
141.201242711
140.865780404
140.518106685
140.157580382
139.78347837
139.395089952
138.991707429
138.572609218
138.137060749
137.684315368
137.213614507
136.724187796
136.215253294
135.686018368
135.135681347
134.563432116
133.968445146
133.34988836
132.706919518
132.038685913
131.34432762
130.622976768
129.873757678
129.095787402
128.288175853
127.450025898
126.580433309
125.678486509
124.743266107
123.773844159
122.769283018
121.728633685
120.650933656
119.535204023
118.380445621
117.185634117
115.949713805
114.671589644
113.350116985
111.984088808
110.572219447
109.113127263
107.605314856
106.047121017
104.43668684
102.771910891
101.050394587
99.2693627701
97.4255635077
95.515143794
93.533493817
91.4750567527
89.3331033415
87.0994020439
84.7639109544
82.3145411258
79.7371946048
77.0171263425
74.1446288101
71.1232991252
67.9903162457
146.572245064
146.340449106
146.039035314
145.728056019
145.423213472
145.131186281
144.852206204
144.583074986
144.320108997
144.060018078
143.800041799
143.537942732
143.27192836
143.000549611
142.722609801
142.437091972
142.143103513
141.839835244
141.526531896
141.202470918
140.866947482
140.51926532
140.158728119
139.784625317
139.396259782
138.992915198
138.573864758
138.138371472
137.685687339
137.215053217
136.725698822
136.216842902
135.687693318
135.137446753
134.565289318
133.970397327
133.351936267
132.7090641
132.040931444
131.346678815
130.625440835
129.876344142
129.09850823
128.291045796
127.453062977
126.583659395
125.68192809
124.746955264
123.777819733
122.773592103
121.733333913
120.656095298
119.540912719
118.386805787
117.192773015
115.957786063
114.680782127
113.360657565
111.996254729
110.586353855
109.129652422
107.624738205
106.070074404
104.463966495
102.804520958
101.089596006
99.3167442731
97.4831439633
95.5855156105
93.6200250651
91.5821757432
89.4667033035
87.2674994328
84.9776454457
82.589720591
80.0967157574
77.4944347912
74.787320351
71.996731365
69.1733638527
146.368852697
146.19295018
145.95175409
145.684426183
145.407236307
145.130594341
144.858900233
144.592393454
144.329622444
144.068607119
143.807312567
143.543871745
143.276659195
143.004284098
142.725553566
142.439429909
142.144991105
141.841397792
141.527867281
141.203653827
140.868034092
140.520296252
140.159730947
139.78562847
139.397278267
138.993959605
138.574943029
138.1394895
137.686849501
137.216262638
136.726957637
136.218152419
135.689054276
135.138860009
134.566756357
133.971920664
133.353521486
132.710718598
132.042663302
131.348499964
130.627364065
129.878382965
129.100678236
128.29336515
127.455553254
126.586346715
125.684844208
124.750138831
123.781317907
122.777462425
121.737645744
120.660932786
119.546378045
118.393023118
117.19989356
115.965995156
114.690309721
113.371784638
112.009329043
110.601793987
109.147963194
107.646543967
106.096152922
104.495274163
102.842240758
101.135202968
99.3720900313
97.5505684224
95.6679983435
93.7213940744
91.7073996545
89.6223037234
87.46214013
85.2229677565
82.9015019249
80.4963912329
78.0107033393
75.4565938385
72.8610108531
70.2710518804
146.245736044
146.090127988
145.883824945
145.647260909
145.39178317
145.12850054
144.863883581
144.600370632
144.33823246
144.076641229
143.814262924
143.549621048
143.281285843
143.007948775
142.728437685
142.441705003
142.14680582
141.842874342
141.529102594
141.204722721
140.868992956
140.521186927
140.160585838
139.786472172
139.39812709
138.994824892
138.575833274
138.140410999
137.687807032
137.217260121
136.727998612
136.219240399
135.690193013
135.140053986
134.568011262
133.973243093
133.354918465
132.712197978
132.044233845
131.350169648
130.62914077
129.880278395
129.102708503
128.295550683
127.457919239
126.588923626
125.687668913
124.753256001
123.784781678
122.781338377
121.742013561
120.665889518
119.552041942
118.39953827
117.207435339
115.974775953
114.700584527
113.383865771
112.023594642
110.618710379
109.168111989
107.670639503
106.125063809
104.5300725
102.884253985
101.186079177
99.4338838021
97.6258541518
95.760020649
93.8342690134
91.8463852077
89.7941633958
87.6756244224
85.4894359376
83.2356671836
80.9170762119
78.5412121798
76.1236752908
73.6913422698
71.2835705727
146.1716565
146.021645994
145.834889262
145.618782179
145.379073866
145.126249838
144.867609419
144.606867394
144.345496331
144.083569844
143.820347087
143.554704644
143.285402011
143.011217955
142.731008973
142.44372523
142.148405245
141.84416172
141.530165153
141.205628425
140.869793622
140.521921447
140.161282986
139.787152706
139.398806912
138.995514926
138.576541676
138.141143876
137.688569135
137.21805541
136.728830654
136.220112682
135.691109195
135.14101796
134.569027088
133.974315322
133.356052483
132.713399639
132.045509985
131.351530013
130.630601302
129.881857142
129.104424224
128.297425632
127.459980384
126.591203792
125.690208031
124.756102595
123.787994684
122.784989496
121.746190476
120.670698621
119.557612351
118.406026819
117.215032815
115.983715391
114.711151939
113.396408554
112.038537145
110.636569497
109.18951422
107.696351675
106.156027463
104.56744484
102.929459571
101.24087635
99.5004497536
97.706893926
95.8589075172
93.9552258307
91.9947168004
89.9765506228
87.9004817908
85.7673230971
83.5796885979
81.3431123623
79.0676313813
76.769852444
74.4744572624
72.2134554165
146.129380255
145.979932226
145.803515661
145.599775984
145.370241382
145.124530596
144.870167709
144.611525918
144.350815215
144.088716591
143.82491416
143.558550064
143.288532783
143.01371367
142.73297599
142.445271563
142.149628369
141.845143899
141.530972856
141.206313731
140.870396413
140.522471719
140.161803027
139.78765978
139.399310847
138.996025537
138.577065675
138.141686236
137.689133861
137.218645956
136.729450199
136.220764392
135.691796439
135.141744495
134.569797238
133.975134229
133.356926387
132.71433656
132.046520341
131.352626335
130.631794872
129.88316288
129.105862084
128.29901995
127.461760561
126.59320543
125.692474307
124.758685953
123.790958844
122.788411777
121.750164429
120.675337908
119.563055173
118.412441184
117.222622877
115.992728895
114.721889068
113.409234254
112.053896114
110.655005574
109.211691189
107.723079294
106.188294129
104.606458999
102.976700864
101.298159463
99.5700043055
97.7914640846
95.9618758411
94.0807669918
92.1479830937
90.1638910855
88.1296863709
86.0478609537
83.9228619446
81.7619854519
79.5764827876
77.3827676537
75.2028866578
73.0630212814
146.110103919
145.960225725
145.788261835
145.590324978
145.365761794
145.123640393
144.871502439
144.613990208
144.353659269
144.091493763
143.827398432
143.560657539
143.29026149
143.015102808
142.734080829
142.446149371
142.1503314
141.845716568
141.531451231
141.20672618
140.87076474
140.522812391
140.162128273
139.787978533
139.399630693
138.996351345
138.577401369
138.142035031
137.689498555
137.219029224
136.729854698
136.221192971
135.692252319
135.142231446
134.570319768
133.975697797
133.357537619
132.715003419
132.047251948
131.353433162
130.632691832
129.884167268
129.106994477
128.300305228
127.463228946
126.594893648
125.694426967
124.760957214
123.793614448
122.791531556
121.753845359
120.679697752
119.568236875
118.418618287
117.230006171
116.001574641
114.732509148
113.422007458
112.069282186
110.673564276
109.234101865
107.750168302
106.221067243
104.64614089
103.024783364
101.356460532
99.640739778
97.8773344268
96.0661697197
94.2074832964
92.3019678676
90.3509926965
88.3568985657
86.3234395238
84.2563239065
82.1638975014
80.0578851551
77.9540432526
75.8720646005
73.8338765392
146.110106589
145.960241868
145.788288913
145.590361263
145.365806506
145.123692693
144.871561403
144.614055014
144.35372923
144.091568315
143.827477119
143.560740009
143.29034748
143.015192128
142.734173363
142.446245064
142.150430253
141.84581864
141.531556632
141.206835072
140.870877348
140.52292902
140.16224932
139.788104516
139.39976231
138.996489326
138.577546636
138.142188726
137.689662077
137.219204124
136.730042994
136.221397121
135.6924753
135.142476864
134.570591981
133.976002067
133.357880312
132.715392271
132.047696532
131.353945413
130.633285773
129.884859925
129.107806617
128.301262103
127.46436122
126.596238554
125.696029715
124.762872694
123.795909303
122.794286677
121.757158925
120.683688927
119.573050274
118.424429415
117.237027973
116.010065376
114.74278192
113.434441932
112.084339491
110.69180508
109.256204952
107.776957103
106.25354055
104.685509439
103.072513771
101.41432604
99.7108789265
97.9623220195
96.1691012467
94.3320676763
92.4526559087
90.5331564853
88.5766857275
86.5878686895
84.5732218826
82.5416474007
80.504932611
78.4780971382
76.4790460907
74.5268753618
146.129388324
145.979981037
145.803597503
145.599885592
145.370376384
145.124688271
144.870345249
144.611720876
144.35102554
144.0889406
143.825150502
143.558797691
143.288790906
143.013981732
142.733253641
142.445558642
142.149924892
141.845450049
141.531288965
141.206640285
140.87073409
140.522821415
140.162165905
139.788037407
139.399705213
138.99643883
138.577500611
138.14214614
137.68962279
137.219168806
136.730012948
136.221374292
135.692462289
135.14247699
134.570609382
133.976041861
133.357948793
132.715497144
132.04784717
131.354153199
130.633564548
129.885226543
129.108281588
128.301870355
127.465133018
126.597210643
125.697246707
124.764388762
123.7977902
122.796612195
121.760025886
120.68721479
119.5773775
118.429730765
117.243512946
116.017988054
114.752450461
113.446230119
112.098698649
110.709278879
109.277459109
107.802791713
106.284920475
104.723597192
103.118707178
101.470306805
99.7786855929
98.0444245417
96.2684104971
94.4520203478
92.5972260109
90.7067227674
88.7844843889
86.8357666036
84.8675618328
82.8890239731
80.911827591
78.9503790451
77.0213975841
75.1423266099
146.171670158
146.0217286
145.83502752
145.618966952
145.379300999
145.126514623
144.867907088
144.607193833
144.345848117
144.08394418
143.820741742
143.555117889
143.285832552
143.011664879
142.731471712
142.444203536
142.148899163
141.84467156
141.530691473
141.206172053
140.870355711
140.522503497
140.161886838
139.787781017
139.399462575
138.996201712
138.577264088
138.141907374
137.689380375
137.218922479
136.729763356
136.221122881
135.692211262
135.142229314
134.570368876
133.975813326
133.357738189
132.715311794
132.047696023
131.354047174
130.633516951
129.885253564
129.10840293
128.302109978
127.465520032
126.597780398
125.698042146
124.765462022
123.799204555
122.798444424
121.762369121
120.690181967
119.581105547
118.434385629
117.24929568
116.025142126
114.761270591
113.457073126
112.111996227
110.725552599
109.297332359
107.827023805
106.31442676
104.759481295
103.162302193
101.523201116
99.8427304671
98.1217535972
96.3615928252
94.5640607373
92.731611477
90.8675070422
88.9760558366
87.0628596273
85.1351379755
83.2020632176
81.2750769886
79.3681268525
77.4973469892
75.6796545939
146.245755661
146.090246532
145.884022691
145.647524244
145.392105841
145.128875642
144.864304263
144.600831062
144.338727835
144.077167659
143.81481732
143.550201031
143.281889636
143.00857513
142.729085834
142.442374616
142.14749696
141.843587425
141.529838377
141.205482327
140.86977795
140.52199941
140.161428467
139.787348378
139.399040916
138.995781454
138.576838751
138.141472863
137.688934387
137.218464072
136.729292646
136.22064087
135.691719752
135.141730889
134.569866957
133.975312271
133.357243434
132.714830068
132.047235624
131.353618286
130.633132016
129.884927743
129.108154667
128.301961678
127.465498916
126.597919552
125.698381763
124.766050905
123.800101944
122.799722193
121.764114417
120.692500432
119.584125243
118.438261709
117.254216032
116.031334137
114.769009247
113.466690841
112.123895142
110.740217258
109.315347626
107.849090482
106.341384544
104.792329526
103.20221693
101.571588228
99.9012771496
98.1924662437
96.4467667863
94.6663209275
92.8539269274
91.0131847591
89.1486757738
87.2661736279
85.3729080311
83.4778627264
81.5921174635
79.7292423208
77.9052492118
76.1375497642
146.368878927
146.193108349
145.952016504
145.684773846
145.407660383
145.131085419
144.859449235
144.592992794
144.330265956
144.069289851
143.808030629
143.544622148
143.277439723
143.005093207
142.72639031
142.44029387
142.145882321
141.842316686
141.528814625
141.204630724
140.869041912
140.521336944
140.160808989
139.786749724
139.398447348
138.995182287
138.576226735
138.140843311
137.688284523
137.217792543
136.728599191
136.219926123
135.690985143
135.140978633
134.569100084
133.974534675
133.356459944
132.714046633
132.04645955
131.352858573
130.632399776
129.884236638
129.107521413
128.301406645
127.46504688
126.597600609
125.698232442
124.766115535
123.800434308
122.800387507
121.765191735
120.69408554
119.586334134
118.441234778
117.258123119
116.036380601
114.775443316
113.474812156
112.134064869
110.752870697
109.331007491
107.86838231
106.365056588
104.821276737
103.237509335
101.614482808
99.953240338
98.2552036542
96.5222476047
94.7567851409
92.9618711212
91.1413227896
89.2998637372
87.443284117
85.5786451802
83.714540176
81.8614832351
80.0325550467
78.243787249
76.5138553345
146.572278567
146.340651733
146.039368852
145.728494989
145.423745771
145.131799572
144.852889035
144.583818014
144.320904755
144.060860642
143.80092656
143.538866199
143.272887993
143.001543708
142.723637407
142.438152801
142.144197833
141.840963731
141.527695427
141.203670596
140.868184899
140.520541639
140.160045387
139.785996915
139.397689667
138.994409138
138.575430972
138.140020267
137.687431335
137.21690766
136.727682068
136.218977026
135.690005082
135.139969351
134.568064095
133.973475382
133.355381759
132.712955067
132.045361315
131.351761701
130.631313863
129.883173312
129.106494889
128.300434325
127.464150074
126.596805362
125.697570507
124.765625539
123.800163157
122.800392133
121.765541265
120.694863811
119.587642733
118.443196747
117.260887363
116.040127059
114.780388271
113.481216025
112.142241211
110.763196354
109.343934641
107.884452519
106.384916198
104.84569326
103.267390134
101.65089645
99.9974356372
98.30862415
96.5865408048
94.8338034159
93.0536535355
91.2500487118
89.4277630517
87.5924931782
85.7509903676
83.9112481692
82.0828874008
80.2780619225
78.5122871724
76.8054187449
146.90633367
146.543161804
146.143418804
145.774549663
145.43703746
145.129023044
144.843733108
144.573090863
144.310771264
144.052149192
143.793808165
143.533217952
143.268479873
142.998127712
142.720986418
142.436074521
142.142536803
141.83959813
141.526531945
141.202639268
140.867234443
140.519633903
140.159153616
139.785100927
139.396775675
138.993467645
138.574455589
138.139006896
137.686377422
137.215811699
136.726543353
136.217795511
135.688781215
135.138703998
134.566758558
133.972131586
133.354002543
132.711544278
132.043923974
131.350304464
130.629845404
129.881703887
129.105036899
128.299002803
127.462763185
126.595485076
125.69634343
124.764523949
123.799226296
122.799667589
121.765086463
120.694748133
119.587950054
118.444028406
117.262365689
116.042399824
114.783635279
113.485654162
112.148131163
110.770851036
109.35372883
107.896833655
106.400416634
104.864943802
103.291134273
101.680004725
100.032920107
98.3516504537
96.6384333474
94.896041125
93.127849379
91.3379046013
89.5309828363
87.7126352762
85.8892259142
84.0679711171
82.2571724008
80.4672096801
78.711297051
77.0080850859
147.456106825
146.802166042
146.249986719
145.812503727
145.440994348
145.118987454
144.829965733
144.559796926
144.299388749
144.042954418
143.786610629
143.527677046
143.264242743
142.994881692
142.718473671
142.43409099
142.140925337
141.838240322
141.525340094
141.201549237
140.866199669
140.518621142
140.158134729
139.784060249
139.395702285
138.992353868
138.5732963
138.137798819
137.685118769
137.214501665
136.725181862
136.216383104
135.687319012
135.137193681
134.565202316
133.970531747
133.352360542
132.709862835
132.0422067
131.348555511
130.628069504
129.879907955
129.103229766
128.297195414
127.460969058
126.593720811
125.694629341
124.762884775
123.797691955
122.79827435
121.763878667
120.693779753
119.587286497
118.44374884
117.262565795
116.043194735
114.785162201
113.488078598
112.151652173
110.775707416
109.360206307
107.905273216
106.411224117
104.878600356
103.308207386
101.701158939
100.058926693
98.3833945904
96.6769157206
94.9423760944
93.1832490459
91.4036445185
89.6083352495
87.8027499605
85.9929055534
84.1851891557
82.3862603418
80.6036764831
78.8445491272
77.1175661226
148.45134442
147.093527976
146.302779929
145.802935409
145.412093192
145.088335304
144.803921272
144.539412536
144.284007452
144.031559739
143.778243721
143.521547028
143.259733428
142.991526865
142.715926943
142.432098526
142.139303412
141.836857153
141.524102561
141.200391018
140.865063076
140.517469261
140.156957657
139.782844917
139.394439385
138.991037475
138.571922136
138.136361567
137.683614809
137.212928903
136.723538814
136.214668614
135.685532202
135.135333959
134.563269468
133.968526494
133.350286493
132.707722478
132.040002641
131.346291255
130.625749709
129.877537811
129.100815478
128.294744593
127.458491019
126.591226959
125.692133615
124.760404196
123.795247334
122.795891013
121.761587072
120.691616676
119.585296397
118.44198543
117.261093965
116.042093219
114.784527173
113.488024571
112.152316455
110.777254605
109.362833255
107.909214458
106.416757749
104.886054301
103.317966156
101.71367053
100.074708939
98.4030393629
96.70108844
94.9718306992
93.2188139227
91.4462063192
89.6588126781
87.8620502858
86.0618159637
84.2639758996
82.474059267
80.696827809
78.9270832553
77.135300592
150.244452913
147.316354504
146.202825238
145.675752609
145.30865061
145.014074759
144.752614411
144.504245387
144.259886075
144.014969633
143.766801211
143.513628095
143.254220138
142.987643672
142.713133884
142.430019503
142.137676786
141.835501159
141.522890114
141.199236216
140.863934128
140.516344086
140.155797206
139.781628265
139.393155146
138.989678685
138.570485093
138.134849391
137.682029208
137.211270104
136.721807079
136.212864365
135.683655939
135.133386222
134.561250805
133.966437164
133.348125566
132.705490065
132.037699473
131.343918429
130.623308708
129.875030733
129.098245144
128.292114607
127.455805928
126.58849244
125.689356691
124.757593475
123.792413298
122.7930464
121.758747444
120.688800974
119.582527567
118.439291174
117.258507658
116.039654769
114.782283976
113.486034272
112.150648369
110.775991738
109.362074737
107.909078524
106.417385178
104.887612399
103.320652947
101.71771915
100.080392399
98.4106804054
96.7110796264
94.9845960969
93.2348350044
91.466033306
89.6830800204
87.8914939059
86.0973213816
84.3070603626
82.5271330087
80.7623267087
78.9921902151
77.0922329311
57.0451708558
53.4930861736
51.1016541812
49.1443063789
47.4724158035
46.0158173416
44.7305219112
43.586806499
42.5629735164
41.6422463233
40.8111865857
40.0587581599
39.3757323547
38.7542892806
38.1877352911
37.6702948088
37.1969517039
36.7633246807
36.3655682891
36.0002928876
35.664498297
35.3555188907
35.0709781355
34.8087503677
34.5669283507
34.3437962557
34.137806281
33.9475583798
33.7717832651
33.609327542
33.4591408726
33.3202649883
33.1918237936
33.0730143593
32.9630986837
32.8613965726
32.7672786624
32.6801586784
32.5994836613
32.5247279252
32.4554659835
32.3916388414
32.3327587824
32.2783391025
32.2279580226
32.1812989839
32.1380913965
32.0980811366
32.0610319708
32.0267380865
31.9949934716
31.9655886527
31.938337872
31.9130787509
31.8896592039
31.8679204131
31.8477239212
31.828943242
31.8114604427
31.7951668565
31.7799637905
31.7657604396
31.7524719399
31.7400195249
31.7283305992
31.7173381829
31.7069805507
31.6972008723
31.6879469648
31.6791708393
31.6708283917
31.662879113
31.6552858166
31.6480143212
31.6410334474
31.634314947
31.6278327713
31.6215629696
31.6154838293
31.609575499
31.6038196291
31.59819987
31.5927012549
31.5873095948
31.582012258
31.5767985076
31.5716580286
31.5665805797
31.5615570587
31.5565790896
31.5516386566
31.5467289415
31.5418448276
31.5369806651
31.5321317775
31.5272956705
31.5224712267
31.5176674942
31.5128678807
31.5080648208
31.5032545161
31.4984814517
31.4936956589
31.4888851483
31.4840448874
31.4791719922
31.4742636056
31.469315262
31.4643230307
31.4592833072
31.4541925654
31.449047855
31.4438465069
31.4385839928
31.4332554923
31.4278594601
31.4223936305
31.4168516723
31.4112298523
31.4055257088
31.3997345946
31.3938514794
31.3878690369
31.3817656656
31.375446926
31.3689573021
31.3630448493
31.3571829915
31.3510760351
31.3448432402
31.3385728022
31.3323497646
31.3261907991
31.3201229838
31.314185076
31.3084219507
31.302871168
31.2975361309
31.2923954753
31.2872260659
31.2826688472
31.27775957
31.2723872339
31.2657716664
31.2559686734
31.2386281722
31.2035398591
31.1294050297
30.9754061392
30.6715436191
30.1130863773
29.1678900993
27.704261549
25.6302671916
22.9199920146
19.6289127342
15.8743023702
11.6224956172
6.59801223027
1.56851045589
60.2265649166
56.1737200879
53.4617573646
51.3094917061
49.5077161977
47.9580266237
46.6022018822
45.4029889617
44.3341874749
43.3761337824
42.5134570774
41.7337831309
41.026932173
40.3843945251
39.7989670866
39.2644927032
38.7756652649
38.3278795441
37.9171156014
37.5398449924
37.1929556402
36.8736906809
36.5795978868
36.3084873555
36.0583970133
35.8275639019
35.6143985794
35.4174639852
35.2354578259
35.0671973102
34.9116051098
34.7676991815
34.634581503
34.5114301813
34.3974913954
34.2920739052
34.1945427085
34.104316494
34.020865505
33.9437080544
33.872377696
33.8062961345
33.7451231449
33.6885109684
33.6361465209
33.5877164764
33.5429217594
33.5014837519
33.4631420759
33.4276529236
33.394793072
33.3643607931
33.336164322
33.3100250425
33.2857730042
33.2632681152
33.2423704936
33.2229497333
33.2048849635
33.188068173
33.1723924202
33.1577600704
33.1440819563
33.1312758589
33.1192662973
33.1079834014
33.0973628619
33.0873452594
33.0778764149
33.0689063103
33.0603887012
33.052281642
33.0445461278
33.0371466322
33.0300505128
33.0232285608
33.0166533198
33.0103000386
33.0041455844
32.9981700955
32.9923535907
32.9866793987
32.9811319405
32.9756962217
32.970358889
32.9651090979
32.9599361881
32.9548288516
32.9497789028
32.9447786585
32.9398188071
32.9349023397
32.9300161933
32.9251524344
32.9203062103
32.9154743009
32.9106451593
32.9058018755
32.9009481722
32.8960807708
32.8911927129
32.8862816478
32.8813490822
32.8763950655
32.871418423
32.8664156031
32.8613821677
32.8563136893
32.851211549
32.8460673185
32.8408744922
32.8356371654
32.8303511688
32.8250080917
32.8196032157
32.8141434411
32.8086146248
32.8030200189
32.7973537151
32.7916150724
32.7858023053
32.7799152295
32.7739560888
32.7679376225
32.7618680294
32.7557882419
32.7496981066
32.7433258365
32.7370469531
32.7308737964
32.7247116063
32.7186465745
32.7127106436
32.7069412577
32.7013802998
32.6961072613
32.6911662128
32.6865598297
32.6824092754
32.6785567875
32.6750298797
32.6715158503
32.6676654574
32.66243693
32.6533526012
32.6351278685
32.595466624
32.509803231
32.332252078
31.9863704505
31.3612471213
30.3217876928
28.7395310942
26.5324754027
23.6865978945
20.261816018
16.3733907165
12.0029158894
6.88859518965
1.70255809563
62.4340351905
58.5005541998
55.6334398853
53.3496237922
51.4478543426
49.8216556206
48.4059848395
47.1588064342
46.0506712769
45.0596875601
44.1689276946
43.3649100825
42.6366545927
41.9750651723
41.3725039622
40.8224874364
40.3194617215
39.8586313341
39.4358280966
39.0474063427
38.6901600641
38.3612558998
38.0581779859
37.7786830922
37.5207633586
37.2826157939
37.0626159179
36.8592956125
36.6713244187
36.4974940461
36.3367040749
36.1879510721
36.050317322
35.9229626575
35.805115929
35.696068928
35.5951692714
35.5018152989
35.4154506032
35.3355605436
35.2616758877
35.1933206753
35.129920224
35.0712697382
35.0170417311
34.9668906835
34.9205032418
34.8775927152
34.8378939825
34.8011619067
34.7671684503
34.7357012791
34.7065624266
34.6795697216
34.6545398187
34.6313240986
34.6097770607
34.5897636895
34.5711566606
34.5538353596
34.5376956979
34.5226401409
34.5085770941
34.495421189
34.4830941466
34.4715234782
34.4606424012
34.4503890585
34.4407070561
34.4315443812
34.4228529638
34.4145891837
34.4067124392
34.3991858164
34.3919753532
34.3850505956
34.3783827689
34.3719464303
34.3657174068
34.3596748565
34.3537984829
34.3480705237
34.342474651
34.3369953458
34.3316189978
34.3263335854
34.3211277255
34.3159903624
34.3109129687
34.3058861208
34.3009015132
34.295943577
34.2910141295
34.2861053674
34.2812095655
34.2763286158
34.2714363606
34.2665500924
34.2616642426
34.2567718697
34.2518676312
34.2469524749
34.2420176817
34.2370582302
34.2320721613
34.227055809
34.2220059573
34.2169168668
34.2117897119
34.2066194464
34.2013985878
34.1961294896
34.190809536
34.1854327482
34.179993472
34.1744983108
34.1689348828
34.1633058969
34.1576088536
34.1518417828
34.1460053677
34.1401006141
34.1341314214
34.1281095163
34.1220446304
34.1159406411
34.1098039401
34.1036309398
34.0975069574
34.0913928629
34.0853328694
34.0793413508
34.0735691481
34.0680597833
34.0628576291
34.0580487858
34.0536809609
34.0497722873
34.0464146898
34.0436198404
34.0412015893
34.0389879788
34.0364796888
34.0323809244
34.0236293764
34.0039459991
33.9589268261
33.8607319198
33.6585951827
33.2701214646
32.5790576917
31.4483059189
29.7530787143
27.4205815632
24.4469242908
20.894658763
16.8757222939
12.3862243431
7.17903501576
1.83448221976
64.2382464995
60.5135251299
57.6095978804
55.2545585758
53.2846891958
51.6006476526
50.1372582765
48.8506180948
47.7094518673
46.6904031704
45.7754283245
44.9502104592
44.2031471614
43.5246784232
42.9068190369