/*--------------------------------*- C++ -*----------------------------------*\
| =========                 |                                                 |
| \\      /  F ield         | OpenFOAM: The Open Source CFD Toolbox           |
|  \\    /   O peration     | Version:  2106                                  |
|   \\  /    A nd           | Website:  www.openfoam.com                      |
|    \\/     M anipulation  |                                                 |
\*---------------------------------------------------------------------------*/
FoamFile
{
    version     2.0;
    format      ascii;
    arch        "LSB;label=32;scalar=64";
    class       surfaceScalarField;
    location    "0.27";
    object      phi;
}
// * * * * * * * * * * * * * * * * * * * * * * * * * * * * * * * * * * * * * //

dimensions      [0 3 -1 0 0 0 0];

oriented        oriented;

internalField   nonuniform List<scalar> 
22100
(
3.38461204837e-05
1.61538795151e-05
2.24572103457e-05
1.13889103211e-05
1.62585537257e-05
6.19865676192e-06
1.27977769801e-05
3.46077687627e-06
1.08046433278e-05
1.99313377861e-06
9.60459051099e-06
1.20005292654e-06
8.85132294407e-06
7.53267658067e-07
8.36435432697e-06
4.86968712112e-07
8.04433664232e-06
3.20017779216e-07
7.83284203906e-06
2.11494697525e-07
7.69339906151e-06
1.39443077432e-07
7.60224234514e-06
9.1156816635e-08
7.54347970578e-06
5.87627277291e-08
7.50634290605e-06
3.7136879857e-08
7.48350348025e-06
2.28394876688e-08
7.46998271369e-06
1.35208118338e-08
7.46241812647e-06
7.56462201106e-09
7.45855011745e-06
3.86803874857e-09
7.45683114605e-06
1.7190036969e-09
7.45642450649e-06
4.06669402514e-10
7.45677431386e-06
-3.49775744445e-10
7.45746048214e-06
-6.86133190786e-10
7.45821882265e-06
-7.58293611198e-10
7.45894412861e-06
-7.25253566718e-10
7.45958844395e-06
-6.44266108377e-10
7.46013239057e-06
-5.43899664868e-10
7.46057452468e-06
-4.4209883566e-10
7.4609233133e-06
-3.48753145427e-10
7.46119166455e-06
-2.68316633346e-10
7.4613936646e-06
-2.01968292479e-10
7.46154268457e-06
-1.48983614673e-10
7.46165041531e-06
-1.0770292282e-10
7.46172657914e-06
-7.61466844708e-11
7.46177930358e-06
-5.27206906478e-11
7.46181254117e-06
-3.32431844864e-11
7.46183128806e-06
-1.87593598141e-11
7.4618403157e-06
-9.05094569976e-12
7.46184306984e-06
-2.78440124182e-12
7.46184150586e-06
1.53485913043e-12
7.46183677305e-06
4.72545563166e-12
7.46182979834e-06
6.98621346372e-12
7.46182117557e-06
8.63851777581e-12
7.46181126702e-06
9.9188754013e-12
7.46180024165e-06
1.1026466925e-11
7.46178810405e-06
1.21352495385e-11
7.46177472621e-06
1.3360415458e-11
7.46175988472e-06
1.47956149636e-11
7.46174326919e-06
1.65463460778e-11
7.46172445855e-06
1.8728256093e-11
7.46170290905e-06
2.14583098537e-11
7.4616779989e-06
2.47964421647e-11
7.46164902093e-06
2.88192713058e-11
7.46161518771e-06
3.36247026753e-11
7.46157564357e-06
3.9293376816e-11
7.46152952388e-06
4.58448202303e-11
7.46147603014e-06
5.32224444591e-11
7.46141448683e-06
6.12774897457e-11
7.46134477015e-06
6.94487533488e-11
7.46126758658e-06
7.69388794064e-11
7.46118536445e-06
8.20376533809e-11
7.46110433315e-06
8.091981161e-11
7.46103671167e-06
6.75713865813e-11
7.46099021638e-06
4.6483345157e-11
7.46098389252e-06
6.32486503612e-12
7.46105363978e-06
-6.96965204226e-11
7.46125769846e-06
-2.03953774014e-10
7.46169052238e-06
-4.32689633765e-10
7.46250212461e-06
-8.11450168531e-10
7.4639277564e-06
-1.42546869041e-09
7.46632304796e-06
-2.39510622527e-09
7.47013784249e-06
-3.81458223483e-09
7.47658248062e-06
-6.4444465918e-09
7.48735056837e-06
-1.07679128108e-08
7.50552529143e-06
-1.81745761169e-08
7.53871636575e-06
-3.3191016409e-08
7.6079510598e-06
-6.92346314202e-08
7.77467131306e-06
-1.66720283951e-07
8.22975470771e-06
-4.55083465701e-07
9.69797426212e-06
-1.46821943265e-06
-5.45395658495e-06
1.51519304911e-05
5.02175950356e-05
1.59362846509e-05
4.42441121481e-05
1.73623935171e-05
3.77795023145e-05
1.26632668449e-05
3.26461450924e-05
8.5941343178e-06
2.89380932174e-05
5.70118586007e-06
2.63596230441e-05
3.77852329406e-06
2.45875188431e-05
2.52537203159e-06
2.33734770022e-05
1.70101073198e-06
2.25435281734e-05
1.14996678821e-06
2.19782197104e-05
7.76803338958e-07
2.15955174056e-05
5.22145557749e-07
2.13387410554e-05
3.47933325916e-07
2.11684997339e-05
2.29004190016e-07
2.10573423074e-05
1.48294417341e-07
2.09861545637e-05
9.40273177344e-08
2.09416823531e-05
5.79930981785e-08
2.09148007082e-05
3.44463361518e-08
2.08993017792e-05
1.93670404175e-08
2.08910781751e-05
9.94267585543e-09
2.08872780592e-05
4.20685882999e-09
2.08862092026e-05
7.19162245584e-10
2.08864550461e-05
-9.31879261749e-10
2.08873265988e-05
-1.62974125792e-09
2.08884662042e-05
-1.86475764739e-09
2.08896396318e-05
-1.81759104169e-09
2.08907227097e-05
-1.62688832509e-09
2.08916603911e-05
-1.37968752475e-09
2.0892438007e-05
-1.12627596677e-09
2.0893063325e-05
-8.93547366968e-10
2.089355557e-05
-6.94120178634e-10
2.08939395051e-05
-5.32837196411e-10
2.08942411188e-05
-4.09252935304e-10
2.08944521435e-05
-2.8712828475e-10
2.0894599228e-05
-1.99786439882e-10
2.08946995902e-05
-1.3360945104e-10
2.08947649322e-05
-8.41301201572e-11
2.08948054317e-05
-4.95896517013e-11
2.08948292715e-05
-2.66607442413e-11
2.08948412869e-05
-1.04829531076e-11
2.08948444163e-05
1.62270776284e-12
2.0894841065e-05
1.03725539667e-11
2.08948328871e-05
1.68464982993e-11
2.08948210163e-05
2.18088733424e-11
2.08948061628e-05
2.58888225559e-11
2.0894788682e-05
2.95942571659e-11
2.08947687002e-05
3.32733963491e-11
2.0894746205e-05
3.71860579458e-11
2.08947210769e-05
4.15399770895e-11
2.08946931062e-05
4.65299292705e-11
2.0894662006e-05
5.23306753192e-11
2.08946275439e-05
5.89559922939e-11
2.08945895804e-05
6.64289776234e-11
2.08945481307e-05
7.46825998292e-11
2.08945034938e-05
8.34816119999e-11
2.08944565211e-05
9.23121058221e-11
2.0894409015e-05
1.00195638444e-10
2.08943642444e-05
1.05549468677e-10
2.08943281595e-05
1.05123962806e-10
2.08943102081e-05
9.4562938766e-11
2.08943255598e-05
6.64271792183e-11
2.08944009077e-05
5.44638672836e-12
2.08945852728e-05
-1.16707777566e-10
2.0894946845e-05
-3.14873526917e-10
2.08956038562e-05
-6.50490308e-10
2.08966654763e-05
-1.13118397484e-09
2.08983072562e-05
-1.84557359248e-09
2.0900887165e-05
-3.01234984528e-09
2.09049531178e-05
-4.87717230313e-09
2.09113744171e-05
-7.84663527951e-09
2.09215752041e-05
-1.25957441656e-08
2.09380464194e-05
-2.0285596376e-08
2.09649362222e-05
-3.33340521709e-08
2.10091867974e-05
-5.50183050055e-08
2.10839779614e-05
-9.29655164905e-08
2.12152491773e-05
-1.64461916536e-07
2.14559362423e-05
-3.09921370367e-07
2.19139576497e-05
-6.24741404371e-07
2.28013701808e-05
-1.34249591883e-06
2.44462769571e-05
-3.11312651369e-06
-7.04211160858e-06
2.60344337351e-05
5.35171055062e-05
1.24191792875e-05
5.29349688019e-05
1.794453047e-05
4.96538408624e-05
1.59443949912e-05
4.58401824178e-05
1.24077929525e-05
4.24400936112e-05
9.10127483926e-06
3.97291738331e-05
6.48944323528e-06
3.76873075296e-05
4.56723849715e-06
3.61976648768e-05
3.19065355033e-06
3.51326144135e-05
2.21501741607e-06
3.43823695275e-05
1.52704838969e-06
3.38606287002e-05
1.04388653754e-06
3.35023486012e-05
7.06213562759e-07
3.32596038222e-05
4.71749077615e-07
3.30975936229e-05
3.10304696342e-07
3.29913376447e-05
2.00283359272e-07
3.29230958574e-05
1.26234938126e-07
3.28804079946e-05
7.71342564854e-08
3.2854622933e-05
4.51521539069e-08
3.28397958982e-05
2.4769762784e-08
3.28318694513e-05
1.21333580855e-08
3.28280000384e-05
4.58863912952e-09
3.28270014608e-05
6.6771176654e-11
3.28271822894e-05
-1.81049937318e-09
3.28280307513e-05
-2.71314498128e-09
3.28291465545e-05
-2.93332840928e-09
3.28302938161e-05
-2.77408570742e-09
3.28313497898e-05
-2.43560015394e-09
3.28322601718e-05
-2.03660634713e-09
3.28330101259e-05
-1.6434414457e-09
3.28336057363e-05
-1.28966384724e-09
3.28340619379e-05
-9.88968359163e-10
3.28343968201e-05
-7.44073525558e-10
3.2834663054e-05
-5.53323384086e-10
3.28348792271e-05
-4.15950828475e-10
3.28350262216e-05
-2.80624741832e-10
3.28351252059e-05
-1.83157132571e-10
3.2835190808e-05
-1.15248657912e-10
3.28352324722e-05
-6.83654616065e-11
3.28352570869e-05
-3.51128018435e-11
3.28352686185e-05
-9.90381531722e-12
3.28352706195e-05
8.38675244838e-12
3.28352655774e-05
2.19050497624e-11
3.28352553118e-05
3.20948572793e-11
3.28352410338e-05
4.0171774937e-11
3.28352234784e-05
4.71144217534e-11
3.28352031059e-05
5.35692483221e-11
3.28351802192e-05
5.99712562929e-11
3.28351550212e-05
6.66253807659e-11
3.28351275951e-05
7.38134225077e-11
3.2835097934e-05
8.17846177487e-11
3.28350663391e-05
9.02732083857e-11
3.2835033402e-05
9.90313890892e-11
3.28350001442e-05
1.07563801435e-10
3.28349683296e-05
1.1489311965e-10
3.28349409487e-05
1.19265693923e-10
3.28349227309e-05
1.17963198693e-10
3.28349205593e-05
1.07299441967e-10
3.28349458778e-05
7.94730282088e-11
3.28350159696e-05
2.42279109535e-11
3.28351604352e-05
-7.82106835203e-11
3.28354305873e-05
-2.64815120348e-10
3.28359150357e-05
-6.01200244817e-10
3.28366294512e-05
-1.02925357985e-09
3.28376675385e-05
-1.68849006297e-09
3.28392865609e-05
-2.75009190189e-09
3.28418634154e-05
-4.42225934474e-09
3.28459018875e-05
-7.05057114615e-09
3.28522163026e-05
-1.11912952916e-08
3.28621197338e-05
-1.77497552949e-08
3.28777769782e-05
-2.82526882796e-08
3.29028495256e-05
-4.53578605904e-08
3.29426904722e-05
-7.31747503063e-08
3.30071328894e-05
-1.19460573362e-07
3.31131668049e-05
-1.98999241073e-07
3.32898196196e-05
-3.41114618305e-07
3.35853231731e-05
-6.05424915432e-07
3.40708091863e-05
-1.110227344e-06
3.48124999599e-05
-2.0841869986e-06
3.5674289706e-05
-3.97491779728e-06
-7.11149569936e-06
3.57436693781e-05
5.35105666269e-05
8.90861279447e-06
5.55742226926e-05
1.58808746493e-05
5.52424832281e-05
1.62761346573e-05
5.35977869147e-05
1.40524894515e-05
5.15418488786e-05
1.11572130528e-05
4.95802813227e-05
8.45101096537e-06
4.79243525032e-05
6.22316748915e-06
4.66181408293e-05
4.49686539891e-06
4.56304682234e-05
3.20269019623e-06
4.49051194614e-05
2.25239731409e-06
4.43840924461e-05
1.56491370008e-06
4.40166964506e-05
1.07360968021e-06
4.37619700888e-05
7.26475531254e-07
4.35882715976e-05
4.84003259766e-07
4.34718723439e-05
3.16682671333e-07
4.33953623786e-05
2.02744963646e-07
4.33461922067e-05
1.26304485465e-07
4.33154547011e-05
7.58897189058e-08
4.32969184388e-05
4.33060815003e-08
4.32862924773e-05
2.27593797995e-08
4.32806897475e-05
1.01914373905e-08
4.32778821912e-05
2.87439589332e-09
4.32770545141e-05
-9.82745154385e-10
4.3277272523e-05
-2.93107880002e-09
4.32779601728e-05
-3.62090427267e-09
4.32788233321e-05
-3.63717222992e-09
4.32796962273e-05
-3.3084343803e-09
4.32804937532e-05
-2.83406877065e-09
4.32811795694e-05
-2.32917914511e-09
4.32817454603e-05
-1.85545453482e-09
4.32821982483e-05
-1.44165128293e-09
4.32825506126e-05
-1.09635385596e-09
4.32828122972e-05
-8.14961427431e-10
4.32829875777e-05
-5.91224390882e-10
4.32831204992e-05
-4.13571884091e-10
4.32832057465e-05
-2.68452293248e-10
4.3283259626e-05
-1.69177119608e-10
4.32832993264e-05
-1.08102065169e-10
4.32833236552e-05
-5.94578385352e-11
4.32833356158e-05
-2.18617460687e-11
4.32833386224e-05
5.39553232478e-12
4.32833346313e-05
2.59239741795e-11
4.32833253359e-05
4.1417206339e-11
4.32833118791e-05
5.36319816065e-11
4.32832948976e-05
6.4059750722e-11
4.32832748274e-05
7.35695005449e-11
4.32832520096e-05
8.26989345092e-11
4.32832267276e-05
9.17923596404e-11
4.32831993296e-05
1.01055644272e-10
4.32831703821e-05
1.10532505052e-10
4.32831405123e-05
1.19890429772e-10
4.32831106782e-05
1.28542421558e-10
4.32830823473e-05
1.3550456402e-10
4.32830576418e-05
1.39172807875e-10
4.32830395102e-05
1.36968004486e-10
4.32830323237e-05
1.24730711722e-10
4.32830440065e-05
9.52243272547e-11
4.3283086536e-05
3.66052092124e-11
4.32831791238e-05
-6.85977068032e-11
4.32833392932e-05
-2.38491164289e-10
4.3283575718e-05
-5.012936076e-10
4.32840158699e-05
-1.0414064555e-09
4.32847820463e-05
-1.79545176886e-09
4.32860300643e-05
-2.93646039372e-09
4.32879670368e-05
-4.68697246679e-09
4.32909424528e-05
-7.39756134957e-09
4.3295515734e-05
-1.16237014806e-08
4.33025654517e-05
-1.82407545736e-08
4.33134737538e-05
-2.8657749374e-08
4.3330398833e-05
-4.5177529418e-08
4.33566507398e-05
-7.1609534407e-08
4.33978015323e-05
-1.14325267372e-07
4.3462705498e-05
-1.84364204659e-07
4.35650921718e-05
-3.01385592573e-07
4.37249249699e-05
-5.00947245813e-07
4.39668138866e-05
-8.47313784824e-07
4.43074421726e-05
-1.45085527117e-06
4.47081182942e-05
-2.48486240499e-06
4.49278868926e-05
-4.19468602933e-06
-6.58269889408e-06
4.43990874458e-05
5.27351381562e-05
6.1734747644e-06
5.57309348626e-05
1.28850781762e-05
5.73114749294e-05
1.4695594796e-05
5.76109926529e-05
1.3752971917e-05
5.71335237244e-05
1.16346821698e-05
5.631946947e-05
9.26506540707e-06
5.54489895903e-05
7.0936475518e-06
5.46629793399e-05
5.28287583607e-06
5.40136840907e-05
3.85198562351e-06
5.35061530667e-05
2.75992849989e-06
5.31242574514e-05
1.94680945266e-06
5.28449882026e-05
1.35287903223e-06
5.26454422482e-05
9.26021562969e-07
5.25057182943e-05
6.23727271451e-07
5.24097238225e-05
4.12677200465e-07
5.23450181147e-05
2.67450725856e-07
5.23022805977e-05
1.69042061301e-07
5.22746937318e-05
1.03476639993e-07
5.22573694682e-05
6.06304019551e-08
5.22468610369e-05
3.32678722285e-08
5.22407615429e-05
1.62909897308e-08
5.22374528179e-05
6.18318741078e-09
5.2235954224e-05
5.15918501538e-10
5.22354462801e-05
-2.42306338341e-09
5.22355111745e-05
-3.68572518462e-09
5.22358565214e-05
-3.98245912796e-09
5.2236310615e-05
-3.76247404016e-09
5.22367768363e-05
-3.3002244509e-09
5.22372040998e-05
-2.75634767032e-09
5.22375696794e-05
-2.22091726587e-09
5.22378668583e-05
-1.73871819653e-09
5.223809841e-05
-1.32782496446e-09
5.22382746116e-05
-9.91126144499e-10
5.22384073745e-05
-7.23982828413e-10
5.22385075983e-05
-5.13818308705e-10
5.22385920715e-05
-3.5296329384e-10
5.22386574463e-05
-2.34593869976e-10
5.2238699619e-05
-1.50312057085e-10
5.22387322503e-05
-9.21117626863e-11
5.2238747567e-05
-3.71874918657e-11
5.22387527272e-05
2.42981077333e-13
5.22387503004e-05
2.83695028073e-11
5.22387422183e-05
4.95118815358e-11
5.22387297946e-05
6.60424353988e-11
5.22387138891e-05
7.99232643805e-11
5.22386950818e-05
9.23178573264e-11
5.22386738741e-05
1.0382416659e-10
5.22386510156e-05
1.14522755431e-10
5.22386270983e-05
1.24797256028e-10
5.22386005301e-05
1.36885474203e-10
5.22385729459e-05
1.47218307009e-10
5.22385454327e-05
1.5574788609e-10
5.2238519539e-05
1.61029700093e-10
5.22384977669e-05
1.60526344863e-10
5.22384850525e-05
1.49250210925e-10
5.22384926479e-05
1.16739644308e-10
5.22385217645e-05
6.57468011836e-11
5.22385949388e-05
-3.68946761802e-11
5.22387127943e-05
-1.86715265404e-10
5.22389028456e-05
-4.28709268842e-10
5.22392379158e-05
-8.36456404151e-10
5.22397502979e-05
-1.55382731579e-09
5.22405170801e-05
-2.56223134542e-09
5.22416704354e-05
-4.08974224376e-09
5.22434134002e-05
-6.42978139608e-09
5.22460470892e-05
-1.0031085306e-08
5.22500231649e-05
-1.55996158327e-08
5.22560325578e-05
-2.42499160032e-08
5.22651339367e-05
-3.77588320528e-08
5.22789448003e-05
-5.89880690513e-08
5.22999236923e-05
-9.25881667088e-08
5.23317877594e-05
-1.46189096052e-07
5.23798833738e-05
-2.32459541254e-07
5.24511420853e-05
-3.72643947651e-07
5.25524361854e-05
-6.02241052644e-07
5.26843228904e-05
-9.79200559977e-07
5.28245889195e-05
-1.5911217124e-06
5.28917477809e-05
-2.55202116305e-06
5.26732848845e-05
-3.97622233299e-06
-5.77369797621e-06
5.1864282682e-05
5.19834866194e-05
4.18998827385e-06
5.50586643746e-05
9.80990064807e-06
5.76386138335e-05
1.21156455486e-05
5.9325903985e-05
1.20656819632e-05
6.02280162247e-05
1.07325701327e-05
6.05929276071e-05
8.90015422585e-06
6.06482847162e-05
7.03829064069e-06
6.05531904378e-05
5.37797030783e-06
6.04029560269e-05
4.00222021213e-06
6.02479156648e-05
2.91496901801e-06
6.01107902553e-05
2.08393498459e-06
5.99990308299e-05
1.46463855222e-06
5.99125157314e-05
1.01253673021e-06
5.9847923905e-05
6.88319160223e-07
5.98010203944e-05
4.59580768676e-07
5.97677357957e-05
3.00735388709e-07
5.97445944846e-05
1.92183434118e-07
5.9728815976e-05
1.19255209271e-07
5.97182678602e-05
7.11785811984e-08
5.97113616973e-05
4.01740936987e-08
5.97069423784e-05
2.07103678841e-08
5.97042085149e-05
8.91710964776e-09
5.97025995164e-05
2.12498020167e-09
5.97016950161e-05
-1.51849093917e-09
5.97012367384e-05
-3.22738438814e-09
5.97010472154e-05
-3.79288716603e-09
5.97010109255e-05
-3.72613467926e-09
5.97010552274e-05
-3.34445324389e-09
5.97011364083e-05
-2.83742285258e-09
5.97012287898e-05
-2.31317695223e-09
5.97013184727e-05
-1.82829785233e-09
5.97013988305e-05
-1.40811535462e-09
5.97014684382e-05
-1.06069639766e-09
5.97015278976e-05
-7.83426034518e-10
5.97015780121e-05
-5.63937094744e-10
5.97016176714e-05
-3.92646629518e-10
5.970164531e-05
-2.62273909652e-10
5.97016604574e-05
-1.65504152819e-10
5.97016586912e-05
-9.03863171811e-11
5.97016505739e-05
-2.90979100597e-11
5.97016439307e-05
6.87731699298e-12
5.97016346474e-05
3.76573667991e-11
5.97016242219e-05
5.99320872512e-11
5.97016125679e-05
7.76663536251e-11
5.9701598627e-05
9.3812688961e-11
5.97015822389e-05
1.08638033218e-10
5.97015634384e-05
1.22532236944e-10
5.9701542131e-05
1.35704170687e-10
5.97015186261e-05
1.48127623963e-10
5.97014957604e-05
1.59518977055e-10
5.97014735508e-05
1.69152399083e-10
5.97014532559e-05
1.75735773865e-10
5.97014365725e-05
1.77373191425e-10
5.97014251719e-05
1.71525714602e-10
5.97014187192e-05
1.55275915224e-10
5.97014087216e-05
1.26330545329e-10
5.9701411513e-05
6.26060180386e-11
5.97014224883e-05
-4.81699711764e-11
5.9701499968e-05
-2.64459525732e-10
5.97016844705e-05
-6.13407352973e-10
5.97019805398e-05
-1.13261068883e-09
5.97023625605e-05
-1.93586947527e-09
5.97029344464e-05
-3.1341435051e-09
5.97037787931e-05
-4.93407278693e-09
5.97050092593e-05
-7.66013630122e-09
5.97067904543e-05
-1.18121041436e-08
5.97093599533e-05
-1.81689222676e-08
5.9713061109e-05
-2.7950884372e-08
5.97183828814e-05
-4.30803196833e-08
5.97260051879e-05
-6.66100582622e-08
5.9736828923e-05
-1.03411672681e-07
5.97519154763e-05
-1.61275440424e-07
5.97721013109e-05
-2.52645144991e-07
5.97967937468e-05
-3.97336196774e-07
5.98208344884e-05
-6.26281713715e-07
5.98273442063e-05
-9.85710110236e-07
5.97742686683e-05
-1.53804644216e-06
5.95736500262e-05
-2.35140285188e-06
5.90675749917e-05
-3.47014686815e-06
-4.80175814448e-06
5.80956343151e-05
5.14373055188e-05
2.7526828858e-06
5.4265820967e-05
6.98138542767e-06
5.72496438438e-05
9.13182288548e-06
5.97900283856e-05
9.52529762338e-06
6.17201290596e-05
8.80246966435e-06
6.30883041821e-05
7.53197931094e-06
6.40167179094e-05
6.10987711798e-06
6.46292378674e-05
4.76545054518e-06
6.50258049725e-05
3.6056532847e-06
6.52790796733e-05
2.66169446238e-06
6.54389748273e-05
1.9240399477e-06
6.55386917441e-05
1.36492172421e-06
6.5599930359e-05
9.5129818966e-07
6.56367452496e-05
6.51504334184e-07
6.56581964301e-05
4.38129654066e-07
6.56701047383e-05
2.8882714276e-07
6.56761940682e-05
1.8609416605e-07
6.56788304722e-05
1.16618867507e-07
6.56795010109e-05
7.05081009355e-08
6.56791249099e-05
4.05502519639e-08
6.56782576226e-05
2.15777088772e-08
6.56772268202e-05
9.9479683946e-09
6.56762176911e-05
3.13417828527e-09
6.56753085254e-05
-6.09257502041e-10
6.56745399333e-05
-2.4587382795e-09
6.56739116626e-05
-3.16457533798e-09
6.56734128548e-05
-3.22727665284e-09
6.56730260604e-05
-2.95758163596e-09
6.56727322939e-05
-2.54355337874e-09
6.56725133769e-05
-2.0941564406e-09
6.56723531817e-05
-1.66801989127e-09
6.56722380326e-05
-1.29290068037e-09
6.56721557935e-05
-9.78401238606e-10
6.56720958418e-05
-7.23429150863e-10
6.56720523944e-05
-5.204679322e-10
6.56720212141e-05
-3.61477548448e-10
6.56719961782e-05
-2.37273518817e-10
6.56719746234e-05
-1.44000085243e-10
6.5671959683e-05
-7.55009911555e-11
6.56719579554e-05
-2.74150452164e-11
6.56719564359e-05
8.372969233e-12
6.56719490838e-05
4.50015472145e-11
6.56719389778e-05
7.00251947747e-11
6.56719264202e-05
9.01950790532e-11
6.56719122742e-05
1.07910740322e-10
6.56718965521e-05
1.24288088499e-10
6.56718790996e-05
1.39895616047e-10
6.56718598333e-05
1.54853609812e-10
6.56718393268e-05
1.68464170796e-10
6.5671819547e-05
1.79070386971e-10
6.56717993747e-05
1.89046388906e-10
6.56717793631e-05
1.9543627e-10
6.56717606171e-05
1.95763673783e-10
6.56717449911e-05
1.8675697302e-10
6.56717360907e-05
1.63766643884e-10
6.56717413212e-05
1.20716270182e-10
6.56717484887e-05
5.50978460692e-11
6.56717758469e-05
-7.58134522304e-11
6.56718426417e-05
-3.31492215855e-10
6.56719374829e-05
-7.08410283383e-10
6.56720839245e-05
-1.27910572568e-09
6.56722885348e-05
-2.14047011113e-09
6.56725675144e-05
-3.41310312032e-09
6.56729372087e-05
-5.30379161737e-09
6.56734082691e-05
-8.13121021645e-09
6.56739779355e-05
-1.23816427732e-08
6.56746155949e-05
-1.88063701885e-08
6.56752348488e-05
-2.85698958352e-08
6.5675633607e-05
-4.34787910099e-08
6.56753830765e-05
-6.63592292399e-08
6.56736132702e-05
-1.01641556747e-07
6.56685874411e-05
-1.56249288198e-07
6.56567676125e-05
-2.40824963627e-07
6.56310202309e-05
-3.71588605582e-07
6.55771864984e-05
-5.72447925993e-07
6.54680202711e-05
-8.76543716834e-07
6.52543294326e-05
-1.32435567625e-06
6.48560215227e-05
-1.95309533941e-06
6.41605425406e-05
-2.77466780053e-06
-3.71875888929e-06
6.30775427212e-05
5.10850425081e-05
1.6676405088e-06
5.36118449511e-05
4.45458321525e-06
5.66873170897e-05
6.05635096182e-06
5.96894473021e-05
6.52316761606e-06
6.22997281125e-05
6.19218906487e-06
6.44136898748e-05
5.41801776252e-06
6.6047186211e-05
4.47638098734e-06
6.72686179493e-05
3.54401900332e-06
6.81598971716e-05
2.71437423344e-06
6.87977639511e-05
2.02382782459e-06
6.92467485082e-05
1.4750555035e-06
6.95579675284e-05
1.05370279694e-06
6.97704344016e-05
7.38831392383e-07
6.99131776858e-05
5.08761120126e-07
7.00073890498e-05
3.43918355319e-07
7.00682989086e-05
2.2791734916e-07
7.01067012677e-05
1.47691874294e-07
7.01301439194e-05
9.31762792862e-08
7.01438333976e-05
5.68186803885e-08
7.0151309849e-05
3.30738502089e-08
7.01549426733e-05
1.79449348654e-08
7.0156290801e-05
8.59990423623e-09
7.01563630294e-05
3.06201828798e-09
7.01557713121e-05
-1.7478594851e-11
7.01549107381e-05
-1.59811889025e-09
7.01539874096e-05
-2.24121047676e-09
7.0153119054e-05
-2.35887349594e-09
7.01523593427e-05
-2.19779867012e-09
7.01517254772e-05
-1.9096059972e-09
7.01512145931e-05
-1.58319258587e-09
7.01508137566e-05
-1.2671047223e-09
7.01505060126e-05
-9.85075178434e-10
7.01502737196e-05
-7.46025947417e-10
7.0150100701e-05
-5.50345458305e-10
7.01499739516e-05
-3.93688876193e-10
7.01498828203e-05
-2.70355144932e-10
7.01498202145e-05
-1.74706045069e-10
7.01497786838e-05
-1.02529878934e-10
7.01497501562e-05
-4.7043746637e-11
7.01497201871e-05
2.49478918221e-12
7.01496968599e-05
3.16647588172e-11
7.01496839169e-05
5.79246781577e-11
7.01496734586e-05
8.04639850854e-11
7.014966357e-05
1.00055142452e-10
7.01496534953e-05
1.17940928607e-10
7.01496428531e-05
1.34867371998e-10
7.01496314965e-05
1.51158747072e-10
7.01496194383e-05
1.66762254159e-10
7.01496064097e-05
1.81292292826e-10
7.01495911048e-05
1.9414159569e-10
7.01495754848e-05
2.04405940774e-10
7.01495603092e-05
2.10297502185e-10
7.01495463366e-05
2.09369225106e-10
7.01495342071e-05
1.98502109374e-10
7.01495236235e-05
1.73975184971e-10
7.01495121309e-05
1.31848023905e-10
7.01495010809e-05
6.58308487551e-11
7.01494922951e-05
-6.72849044634e-11
7.01494985965e-05
-3.38005825701e-10
7.01495180389e-05
-7.2802267355e-10
7.01495376359e-05
-1.2988359598e-09
7.0149535183e-05
-2.13807419359e-09
7.01494834733e-05
-3.36139954449e-09
7.01493289363e-05
-5.14926971496e-09
7.01489722563e-05
-7.77448512052e-09
7.01482376616e-05
-1.16469127913e-08
7.01468231139e-05
-1.73916219189e-08
7.01442158981e-05
-2.59624218038e-08
7.01395398213e-05
-3.88024436393e-08
7.01313116714e-05
-5.81307423008e-08
7.01170411758e-05
-8.73706933325e-08
7.00925678216e-05
-1.31775580897e-07
7.00507945877e-05
-1.9905142783e-07
6.99797382545e-05
-3.00531975148e-07
6.98594181502e-05
-4.52127716924e-07
6.9657365917e-05
-6.74491468087e-07
6.93236288528e-05
-9.90618785453e-07
6.87885932472e-05
-1.41806009492e-06
6.7969568012e-05
-1.95564279056e-06
-2.55750257045e-06
6.68083113179e-05
5.08804133426e-05
7.87227300089e-07
5.31704665785e-05
2.16453021222e-06
5.62177503555e-05
3.00906739938e-06
5.94382705633e-05
3.30264761619e-06
6.24449705815e-05
3.18548926297e-06
6.50382541904e-05
2.82473436762e-06
6.71548679369e-05
2.35976744579e-06
6.88135665907e-05
1.88532053669e-06
7.00731727303e-05
1.45476825823e-06
7.10056698086e-05
1.09133088321e-06
7.1681266198e-05
7.99459229175e-07
7.21614256391e-05
5.73543451612e-07
7.24966066452e-05
4.03650470173e-07
7.2726483275e-05
2.78884563302e-07
7.28812822509e-05
1.8911945007e-07
7.29834720872e-05
1.25727585593e-07
7.30494159563e-05
8.17480800853e-08
7.30908181522e-05
5.17741545321e-08
7.31159121818e-05
3.17247103243e-08
7.31303967829e-05
1.85893025293e-08
7.31381515889e-05
1.01901886963e-08
7.3141772118e-05
4.9794400176e-09
7.3142959915e-05
1.8742855379e-09
7.31428136097e-05
1.28880707302e-10
7.31419904469e-05
-7.74918558181e-10
7.31409076004e-05
-1.15833263203e-09
7.31397928e-05
-1.24402908633e-09
7.31387654575e-05
-1.17040003708e-09
7.31378780258e-05
-1.02210970398e-09
7.31371444122e-05
-8.4950548509e-10
7.31365572368e-05
-6.79838759234e-10
7.31360991069e-05
-5.26841664138e-10
7.3135749144e-05
-3.95965784132e-10
7.31354867072e-05
-2.87839423133e-10
7.31352934467e-05
-2.00397705802e-10
7.31351537321e-05
-1.30644153782e-10
7.31350543075e-05
-7.53157330227e-11
7.31349826397e-05
-3.09239120554e-11
7.31349294687e-05
6.05171161744e-12
7.31348996851e-05
3.22161673691e-11
7.31348765445e-05
5.47671680652e-11
7.31348597308e-05
7.47145215495e-11
7.31348473463e-05
9.28248236303e-11
7.31348375759e-05
1.09789777945e-10
7.31348291502e-05
1.2631971228e-10
7.31348211796e-05
1.42770776531e-10
7.31348130268e-05
1.59190147422e-10
7.31348042454e-05
1.75353273521e-10
7.31347945768e-05
1.90721135558e-10
7.31347839961e-05
2.04460452591e-10
7.31347725589e-05
2.15560117157e-10
7.3134760314e-05
2.22221226052e-10
7.31347473715e-05
2.21966305435e-10
7.31347339534e-05
2.11569829316e-10
7.31347205502e-05
1.87034398434e-10
7.31347080931e-05
1.43991679371e-10
7.31346935148e-05
8.01183263907e-11
7.31346685776e-05
-4.25985578602e-11
7.31346254138e-05
-2.95029372391e-10
7.31345572306e-05
-6.59975295918e-10
7.31344406267e-05
-1.18235778494e-09
7.31342321053e-05
-1.92969636985e-09
7.31338633351e-05
-2.99274068805e-09
7.3133219109e-05
-4.50503778676e-09
7.31321059971e-05
-6.66128689784e-09
7.3130201339e-05
-9.74213665378e-09
7.31269777694e-05
-1.41677721345e-08
7.31215786378e-05
-2.05629205371e-08
7.31125882224e-05
-2.9811708333e-08
7.30976992486e-05
-4.32414979791e-08
7.30732031503e-05
-6.2874295572e-08
7.30331930163e-05
-9.17651463611e-08
7.2968142809e-05
-1.34001105686e-07
7.28630178454e-05
-1.95406885039e-07
7.26946241292e-05
-2.83733881013e-07
7.24284166562e-05
-4.0828411291e-07
7.20159634329e-05
-5.78165844932e-07
7.13959579511e-05
-7.98054985097e-07
7.05026859515e-05
-1.06237119857e-06
-1.34611015952e-06
6.92912930659e-05
5.07871727525e-05
5.46829176645e-11
5.29516502591e-05
5.29356529081e-11
5.59606890955e-05
2.8776673974e-11
5.92633227561e-05
1.41680499772e-11
6.24488094959e-05
2.74023759594e-12
6.52735501793e-05
-6.10290391569e-12
6.76333298129e-05
-1.19895701511e-11
6.95186654537e-05
-1.49266855913e-11
7.0973449225e-05
-1.53577514474e-11
7.20647941227e-05
-1.38815602199e-11
7.28642645918e-05
-1.11267449586e-11
7.34378158881e-05
-7.7445719071e-12
7.3841470839e-05
-4.39215831006e-12
7.41203571962e-05
-1.708078043e-12
7.43094770072e-05
-2.77063558831e-13
7.44352051779e-05
-5.02550681052e-13
7.45169559774e-05
-2.63909622269e-12
7.45687366518e-05
-6.44831910964e-12
7.46004727172e-05
-1.12913721933e-11
7.46190782668e-05
-1.61837141824e-11
7.46292885172e-05
-1.99971286744e-11
7.46342896612e-05
-2.16378368871e-11
7.46361846489e-05
-2.06422007018e-11
7.4636331864e-05
-1.82928382608e-11
7.46355727342e-05
-1.57589399348e-11
7.4634427033e-05
-1.26031011838e-11
7.4633192034e-05
-8.99730157103e-12
7.46320266938e-05
-5.01701434903e-12
7.46310048136e-05
-1.6941459099e-13
7.46301514818e-05
3.90766860943e-12
7.46294631844e-05
8.56054438042e-12
7.46289229203e-05
1.35280027045e-11
7.46285082791e-05
1.87638390852e-11
7.46281961631e-05
2.43364550247e-11
7.46279653593e-05
3.04412189468e-11
7.46277975148e-05
3.72109132617e-11
7.46276774543e-05
4.47222427715e-11
7.46275935294e-05
5.2945461849e-11
7.46275376136e-05
6.18991041338e-11
7.46274985452e-05
7.12308807052e-11
7.46274723767e-05
8.09036994596e-11
7.46274552458e-05
9.18258274242e-11
7.46274441486e-05
1.03899565936e-10
7.46274368422e-05
1.17056091175e-10
7.46274317884e-05
1.31312095434e-10
7.46274279064e-05
1.46553365699e-10
7.46274244296e-05
1.62519011429e-10
7.46274208067e-05
1.78777369486e-10
7.46274166125e-05
1.94667961827e-10
7.46274115107e-05
2.09283321661e-10
7.46274053222e-05
2.21442859275e-10
7.4627397827e-05
2.29388725316e-10
7.46273886562e-05
2.30790288113e-10
7.46273771719e-05
2.22710659737e-10
7.46273622611e-05
2.01646901053e-10
7.46273422e-05
1.63792903542e-10
7.46273159994e-05
1.06042245844e-10
7.46272711532e-05
1.95914999165e-12
7.46271820164e-05
-2.06126530797e-10
7.46270452748e-05
-5.23398242463e-10
7.46268215494e-05
-9.58751240649e-10
7.4626449797e-05
-1.55805715146e-09
7.46258334393e-05
-2.37644145478e-09
7.46248155153e-05
-3.48705648544e-09
7.46231405978e-05
-4.98628887365e-09
7.46203910213e-05
-6.9923944183e-09
7.46159011688e-05
-9.67762653765e-09
7.46086114439e-05
-1.32728495988e-08
7.45967812424e-05
-1.79811815511e-08
7.45776071248e-05
-2.40671797616e-08
7.45466762292e-05
-3.19432438619e-08
7.44972450186e-05
-4.23336358819e-08
7.44185642155e-05
-5.53201652048e-08
7.42942202809e-05
-7.10629689497e-08
7.40998081481e-05
-8.93217922935e-08
7.38004675054e-05
-1.08943622024e-07
7.33494680117e-05
-1.2716658576e-07
7.26902301526e-05
-1.38817599104e-07
7.17645653646e-05
-1.36706913232e-07
-1.12330486639e-07
7.05307850872e-05
5.07871717183e-05
-7.87116902778e-07
5.29516494069e-05