/*--------------------------------*- C++ -*----------------------------------*\
| =========                 |                                                 |
| \\      /  F ield         | OpenFOAM: The Open Source CFD Toolbox           |
|  \\    /   O peration     | Version:  2106                                  |
|   \\  /    A nd           | Website:  www.openfoam.com                      |
|    \\/     M anipulation  |                                                 |
\*---------------------------------------------------------------------------*/
FoamFile
{
    version     2.0;
    format      ascii;
    arch        "LSB;label=32;scalar=64";
    class       volVectorField;
    location    "0.36";
    object      U;
}
// * * * * * * * * * * * * * * * * * * * * * * * * * * * * * * * * * * * * * //

dimensions      [0 1 -1 0 0 0 0];

internalField   nonuniform List<vector> 
9600
(
(0.675396184106 0.15767743369 0)
(0.563826156077 0.102430806569 0)
(0.381538929138 0.0510646930173 0)
(0.283853189305 0.0244589887004 0)
(0.232281027484 0.011934822647 0)
(0.201907709208 0.00623035802532 0)
(0.183178407414 0.0035219266033 0)
(0.171271987319 0.00212007534341 0)
(0.163512242245 0.00132523596951 0)
(0.158392661626 0.000841456812766 0)
(0.155010698755 0.000534136031938 0)
(0.152789979074 0.00033503977632 0)
(0.151348689863 0.000205521192344 0)
(0.150429241113 0.000121791961525 0)
(0.149856452836 6.84336239083e-05 0)
(0.149511115966 3.51729351264e-05 0)
(0.149312506735 1.50863778301e-05 0)
(0.149206457197 3.50363682577e-06 0)
(0.149157076703 -2.70693112527e-06 0)
(0.149140966604 -5.61156367752e-06 0)
(0.149143249469 -6.52734060305e-06 0)
(0.149154645687 -6.41814221884e-06 0)
(0.149169584552 -5.7821599857e-06 0)
(0.149184955855 -4.92829576343e-06 0)
(0.149199126117 -4.0427548759e-06 0)
(0.149211374241 -3.22385887028e-06 0)
(0.14922151242 -2.51507976673e-06 0)
(0.149229641065 -1.92819646835e-06 0)
(0.149235996882 -1.45791432439e-06 0)
(0.149240864115 -1.09095669322e-06 0)
(0.149244524859 -8.11013916772e-07 0)
(0.149247233761 -6.01541345926e-07 0)
(0.149249208154 -4.47470352071e-07 0)
(0.149250626413 -3.35845200575e-07 0)
(0.149251630985 -2.56125791109e-07 0)
(0.149252332615 -1.99852128901e-07 0)
(0.149252815298 -1.60065702263e-07 0)
(0.149253142159 -1.31490833132e-07 0)
(0.149253359901 -1.10501310061e-07 0)
(0.149253502133 -9.44853537412e-08 0)
(0.149253592648 -8.19756253446e-08 0)
(0.149253649049 -7.27069277157e-08 0)
(0.149253682537 -6.92150879668e-08 0)
(0.14925369997 -7.00618649894e-08 0)
(0.149253707279 -7.31929346975e-08 0)
(0.149253708821 -7.77067043621e-08 0)
(0.149253707379 -8.36716128777e-08 0)
(0.149253704714 -9.1198425866e-08 0)
(0.149253701758 -9.96500838159e-08 0)
(0.149253698489 -1.08724297151e-07 0)
(0.149253694828 -1.18167266698e-07 0)
(0.14925369081 -1.28000469185e-07 0)
(0.149253686656 -1.38408339779e-07 0)
(0.149253682741 -1.49578194753e-07 0)
(0.149253679018 -1.61426318544e-07 0)
(0.149253675228 -1.7382120156e-07 0)
(0.149253671457 -1.86839234095e-07 0)
(0.149253667935 -2.00764291879e-07 0)
(0.149253664437 -2.15865078593e-07 0)
(0.149253660442 -2.32059766641e-07 0)
(0.149253655913 -2.49290506704e-07 0)
(0.149253651568 -2.67655422144e-07 0)
(0.149253648006 -2.87259345948e-07 0)
(0.149253645091 -3.08028869869e-07 0)
(0.149253642341 -3.29847265341e-07 0)
(0.149253639356 -3.5299860415e-07 0)
(0.149253636014 -3.77853722232e-07 0)
(0.149253632496 -4.04446014367e-07 0)
(0.149253629156 -4.32623042808e-07 0)
(0.149253626153 -4.62265235082e-07 0)
(0.14925362327 -4.93316982101e-07 0)
(0.149253620232 -5.25959124631e-07 0)
(0.149253616922 -5.60518140354e-07 0)
(0.1492536132 -5.97140705541e-07 0)
(0.149253608939 -6.35738463248e-07 0)
(0.149253604554 -6.76228769425e-07 0)
(0.149253600925 -7.18723705925e-07 0)
(0.14925359827 -7.63342748362e-07 0)
(0.149253595669 -8.10074657621e-07 0)
(0.14925359241 -8.59111049095e-07 0)
(0.149253588803 -9.10909278898e-07 0)
(0.149253585157 -9.65598119681e-07 0)
(0.149253581251 -1.02275833043e-06 0)
(0.149253577166 -1.08204612877e-06 0)
(0.149253573631 -1.14374958895e-06 0)
(0.149253570865 -1.20832845883e-06 0)
(0.149253568045 -1.27575968286e-06 0)
(0.149253564696 -1.34594850573e-06 0)
(0.149253561192 -1.41902566985e-06 0)
(0.149253557847 -1.49500672235e-06 0)
(0.149253554664 -1.5737400034e-06 0)
(0.149253551642 -1.65530512284e-06 0)
(0.149253549043 -1.74004422723e-06 0)
(0.149253547196 -1.82790276707e-06 0)
(0.149253546508 -1.918523968e-06 0)
(0.149253547593 -2.01199580902e-06 0)
(0.149253550388 -2.10849331225e-06 0)
(0.149253554398 -2.20770701409e-06 0)
(0.149253560085 -2.30915567356e-06 0)
(0.149253568945 -2.41266317143e-06 0)
(0.149253582138 -2.5182848252e-06 0)
(0.149253599684 -2.62576102238e-06 0)
(0.14925362246 -2.73482297907e-06 0)
(0.149253653476 -2.8456633287e-06 0)
(0.149253695744 -2.95855855082e-06 0)
(0.149253751011 -3.07350224506e-06 0)
(0.149253821571 -3.19070491561e-06 0)
(0.149253911055 -3.31070722712e-06 0)
(0.149254023618 -3.43441205093e-06 0)
(0.149254164113 -3.56412798072e-06 0)
(0.149254339803 -3.70587315966e-06 0)
(0.149254561064 -3.86422620604e-06 0)
(0.149254838666 -4.03444663287e-06 0)
(0.149255184483 -4.2146509847e-06 0)
(0.149255613953 -4.40494507661e-06 0)
(0.149256146475 -4.60571930773e-06 0)
(0.149256806472 -4.81770260636e-06 0)
(0.149257625243 -5.04235467583e-06 0)
(0.149258641263 -5.28168119601e-06 0)
(0.149259900743 -5.53749485952e-06 0)
(0.14926146023 -5.81177735606e-06 0)
(0.149263389913 -6.10766390747e-06 0)
(0.149265778899 -6.43117125607e-06 0)
(0.149268747265 -6.79819581237e-06 0)
(0.149272466361 -7.26609960325e-06 0)
(0.149277068957 -7.96596055715e-06 0)
(0.14928272033 -8.82878107706e-06 0)
(0.149289702069 -9.81488240721e-06 0)
(0.149298347089 -1.09233937444e-05 0)
(0.14930905349 -1.21665272363e-05 0)
(0.149322312478 -1.35632469e-05 0)
(0.149338733177 -1.51384046282e-05 0)
(0.149359070929 -1.69239744044e-05 0)
(0.149384263055 -1.89602443637e-05 0)
(0.14941546964 -2.12960346325e-05 0)
(0.149454131092 -2.39935920197e-05 0)
(0.149502039041 -2.7133818783e-05 0)
(0.149561420401 -3.08183148045e-05 0)
(0.149635046138 -3.51740493906e-05 0)
(0.149726364855 -4.03608329489e-05 0)
(0.149839680698 -4.65835598289e-05 0)
(0.149980376793 -5.41039826436e-05 0)
(0.150155193361 -6.32545083181e-05 0)
(0.150372599404 -7.44620432868e-05 0)
(0.150643272215 -8.82751264643e-05 0)
(0.150980732897 -0.000105404167746 0)
(0.151402198282 -0.000126775829484 0)
(0.151929731416 -0.000153602541318 0)
(0.152591845031 -0.00018748677844 0)
(0.153425761458 -0.000230559234453 0)
(0.154480727241 -0.000285688300553 0)
(0.15582313607 -0.000356900775949 0)
(0.157545212514 -0.000450559604562 0)
(0.159782606136 -0.000579696663029 0)
(0.162756524807 -0.000780734246584 0)
(0.166880114731 -0.00117493425795 0)
(0.173089504264 -0.00219214341704 0)
(0.184186453723 -0.00543017392445 0)
(0.208622846354 -0.0169280003779 0)
(0.262457909737 -0.0589231081867 0)
(0.977201177052 0.296997118796 0)
(0.96268745933 0.250387271206 0)
(0.82064602951 0.158581011285 0)
(0.697824896365 0.0957993459675 0)
(0.610491665893 0.0579132758787 0)
(0.549133314989 0.0359038517077 0)
(0.50670598671 0.022930936557 0)
(0.477662022665 0.0149788793277 0)
(0.457815302706 0.00990973262203 0)
(0.444277678939 0.00658331020051 0)
(0.435087229052 0.00436198768961 0)
(0.428895556384 0.00286682728739 0)
(0.424768036361 0.0018597207102 0)
(0.422054225513 0.00118457189575 0)
(0.42030104273 0.000736109663338 0)
(0.419193669367 0.00044215810903 0)
(0.4185146005 0.00025285886118 0)
(0.418114825122 0.000133738221813 0)
(0.417893366819 6.10517079507e-05 0)
(0.417782723289 1.85771330278e-05 0)
(0.417738464514 -4.6347833636e-06 0)
(0.417731926227 -1.60104268017e-05 0)
(0.417745141408 -2.03065813246e-05 0)
(0.41776716365 -2.06090297226e-05 0)
(0.417791611812 -1.88553821013e-05 0)
(0.417815025287 -1.62204787783e-05 0)
(0.41783574464 -1.3382601108e-05 0)
(0.41785317756 -1.07048260184e-05 0)
(0.417867327355 -8.35636649015e-06 0)
(0.417878499756 -6.39268035322e-06 0)
(0.417887126012 -4.80640830582e-06 0)
(0.417893660699 -3.55873933668e-06 0)
(0.417898528123 -2.59842162141e-06 0)
(0.417902097962 -1.87240807107e-06 0)
(0.417904678421 -1.3320935388e-06 0)
(0.41790651814 -9.35747155773e-07 0)
(0.417907811767 -6.48453089611e-07 0)
(0.417908708396 -4.42366196812e-07 0)
(0.417909320524 -2.96204760209e-07 0)
(0.417909731288 -1.9406890599e-07 0)
(0.417910000821 -1.23911040778e-07 0)
(0.417910171524 -7.69387525088e-08 0)
(0.417910275021 -4.84707686775e-08 0)
(0.417910335061 -3.28573000288e-08 0)
(0.417910366983 -2.50420123951e-08 0)
(0.417910380745 -2.14745032784e-08 0)
(0.417910383188 -1.97124971236e-08 0)
(0.417910379877 -1.81125639168e-08 0)
(0.417910374106 -1.73983700514e-08 0)
(0.417910366782 -1.8145632105e-08 0)
(0.417910358362 -1.97330661616e-08 0)
(0.417910348982 -2.17227589087e-08 0)
(0.417910338929 -2.39922973511e-08 0)
(0.417910328915 -2.66173501123e-08 0)
(0.417910319227 -2.93943310536e-08 0)
(0.417910309476 -3.19851454695e-08 0)
(0.417910299365 -3.42880465485e-08 0)
(0.417910288906 -3.65435688097e-08 0)
(0.417910278189 -3.91662679979e-08 0)
(0.417910267009 -4.20907037775e-08 0)
(0.417910255163 -4.50413629286e-08 0)
(0.417910243174 -4.80811781754e-08 0)
(0.417910231744 -5.1351054313e-08 0)
(0.417910220895 -5.46960632818e-08 0)
(0.41791020977 -5.79142452929e-08 0)
(0.41791019748 -6.1317998587e-08 0)
(0.417910184129 -6.5303610542e-08 0)
(0.417910170403 -6.98894913022e-08 0)
(0.417910156831 -7.465318259e-08 0)
(0.417910143477 -7.94271601251e-08 0)
(0.417910129838 -8.4208757038e-08 0)
(0.417910115289 -8.90788732156e-08 0)
(0.41791009971 -9.4217087681e-08 0)
(0.417910083302 -9.970983541e-08 0)
(0.417910066145 -1.05299271468e-07 0)
(0.417910048481 -1.10672698418e-07 0)
(0.417910031063 -1.16062712653e-07 0)
(0.417910014333 -1.22002526278e-07 0)
(0.41790999737 -1.28510922672e-07 0)
(0.417909978979 -1.35371387633e-07 0)
(0.417909959416 -1.42914293047e-07 0)
(0.41790993972 -1.51463835172e-07 0)
(0.417909920134 -1.60438758347e-07 0)
(0.417909900224 -1.68965232056e-07 0)
(0.417909880174 -1.77256116294e-07 0)
(0.417909860577 -1.86266095085e-07 0)
(0.417909841102 -1.96091007666e-07 0)
(0.417909821183 -2.06248760959e-07 0)
(0.417909801216 -2.16709599927e-07 0)
(0.417909781917 -2.27676242448e-07 0)
(0.417909763452 -2.39151700252e-07 0)
(0.417909745653 -2.51221998118e-07 0)
(0.417909729138 -2.64307895731e-07 0)
(0.417909715013 -2.7846010957e-07 0)
(0.417909703868 -2.93417033715e-07 0)
(0.417909696435 -3.09604244742e-07 0)
(0.41790969368 -3.27607746696e-07 0)
(0.417909696296 -3.47363500796e-07 0)
(0.417909705302 -3.68847196985e-07 0)
(0.41790972275 -3.9382528695e-07 0)
(0.417909751499 -4.24399122034e-07 0)
(0.417909793685 -4.59417074131e-07 0)
(0.417909851694 -4.97983283238e-07 0)
(0.417909930443 -5.40585194665e-07 0)
(0.417910036235 -5.88548960993e-07 0)
(0.417910174716 -6.42676687186e-07 0)
(0.417910352448 -7.03474065392e-07 0)
(0.417910578363 -7.72157642347e-07 0)
(0.417910862419 -8.4912173528e-07 0)
(0.417911213857 -9.3260958995e-07 0)
(0.417911648767 -1.01637934647e-06 0)
(0.417912200576 -1.09765678064e-06 0)
(0.417912902074 -1.18765058036e-06 0)
(0.417913781766 -1.29305338986e-06 0)
(0.417914878993 -1.41884698899e-06 0)
(0.417916244635 -1.57093475902e-06 0)
(0.417917941706 -1.75601304304e-06 0)
(0.417920049128 -1.98308788531e-06 0)
(0.417922665173 -2.26432216048e-06 0)
(0.417925910581 -2.61394648158e-06 0)
(0.41792993324 -3.04878196908e-06 0)
(0.417934915099 -3.5900997135e-06 0)
(0.417941080738 -4.26652902167e-06 0)
(0.417948698611 -5.11901753915e-06 0)
(0.417958087065 -6.2246398042e-06 0)
(0.417969722484 -7.73144311361e-06 0)
(0.417984206109 -9.66055333344e-06 0)
(0.418002188641 -1.20660128096e-05 0)
(0.418024485872 -1.50467545291e-05 0)
(0.41805212047 -1.87340914879e-05 0)
(0.418086362702 -2.32932431646e-05 0)
(0.418128787827 -2.8928615147e-05 0)
(0.41818134903 -3.58930282121e-05 0)
(0.418246470662 -4.45012242555e-05 0)
(0.418327156963 -5.51415124988e-05 0)
(0.418427133837 -6.82954746333e-05 0)
(0.418551031685 -8.45648328899e-05 0)
(0.41870460823 -0.000104700160139 0)
(0.418895027587 -0.000129640403776 0)
(0.41913120722 -0.00016056051222 0)
(0.419424270516 -0.000198938133872 0)
(0.419788124986 -0.000246643554118 0)
(0.420240188335 -0.000306050781614 0)
(0.420802341849 -0.000380192385635 0)
(0.421502173434 -0.000472967826109 0)
(0.422374623886 -0.000589436496887 0)
(0.423464209601 -0.000736236268179 0)
(0.424828057116 -0.000922187323373 0)
(0.42654018534 -0.00115922138746 0)
(0.428697723359 -0.0014638517533 0)
(0.431430328437 -0.00185969116815 0)
(0.434915259748 -0.00238223764806 0)
(0.439403047593 -0.00308904846837 0)
(0.445264921266 -0.004084311639 0)
(0.453086671089 -0.00558422133632 0)
(0.463848442707 -0.00809729130018 0)
(0.479264014508 -0.0129235699079 0)
(0.502646089564 -0.0235918318542 0)
(0.540425936432 -0.049923055707 0)
(0.59665326057 -0.115481572281 0)
(1.03387039388 0.239240959735 0)
(1.08314081578 0.293634379675 0)
(1.03294437279 0.239131934477 0)
(0.954408208234 0.17453901788 0)
(0.880112582939 0.12155146307 0)
(0.818677614823 0.0832335937035 0)
(0.771466792044 0.0568258127952 0)
(0.736691572811 0.0388125735626 0)
(0.711672100484 0.0264913185885 0)
(0.693953127822 0.0180235770479 0)
(0.681568200119 0.0121876201286 0)
(0.673018596998 0.00816650310472 0)
(0.667192225787 0.00540556514185 0)
(0.663277741136 0.00352226164652 0)
(0.660690302271 0.00224961049664 0)
(0.659012727354 0.00140002673198 0)
(0.657950519568 0.000841455337688 0)
(0.657298066144 0.000481122910971 0)
(0.656913522126 0.000254194373497 0)
(0.656700330544 0.000115711346559 0)
(0.656593721535 3.47973801845e-05 0)
(0.656551006914 -9.46372436502e-06 0)
(0.656544662933 -3.1007799202e-05 0)
(0.656557359333 -3.90712965339e-05 0)
(0.656578541143 -3.95431311995e-05 0)
(0.656602063509 -3.61150032384e-05 0)
(0.656624592838 -3.10252192272e-05 0)
(0.656644530802 -2.5564044003e-05 0)
(0.656661306224 -2.04200617214e-05 0)
(0.656674921973 -1.59130014655e-05 0)
(0.656685672365 -1.21463764309e-05 0)
(0.656693972187 -9.10432669083e-06 0)
(0.656700259105 -6.71167410688e-06 0)
(0.656704941527 -4.86976098998e-06 0)
(0.656708375295 -3.47740674861e-06 0)
(0.65671085721 -2.44209069424e-06 0)
(0.656712626022 -1.68421214818e-06 0)
(0.656713868585 -1.1377000545e-06 0)
(0.65671472831 -7.49675767439e-07 0)
(0.656715313503 -4.79157931767e-07 0)
(0.656715704705 -2.94366985469e-07 0)
(0.656715960365 -1.7075384723e-07 0)
(0.656716122622 -8.90638096865e-08 0)
(0.656716221804 -3.65024403909e-08 0)
(0.656716279323 -4.05405938484e-09 0)
(0.656716310347 1.50718790419e-08 0)
(0.656716325126 2.60147881868e-08 0)
(0.656716328982 3.25239621425e-08 0)
(0.656716324976 3.60348525375e-08 0)
(0.656716316681 3.83377771517e-08 0)
(0.656716306473 4.00152029344e-08 0)
(0.656716295027 4.17756881664e-08 0)
(0.656716282699 4.40745565107e-08 0)
(0.656716270224 4.71059541691e-08 0)
(0.656716258046 5.07439231076e-08 0)
(0.656716245891 5.47113327419e-08 0)
(0.656716233373 5.9280187169e-08 0)
(0.656716220264 6.43547682427e-08 0)
(0.656716206591 6.9546713715e-08 0)
(0.656716192445 7.46227076516e-08 0)
(0.656716177692 8.00751723468e-08 0)
(0.656716162668 8.6428674777e-08 0)
(0.656716148054 9.35805954496e-08 0)
(0.656716133902 1.01113006715e-07 0)
(0.656716119275 1.08633011265e-07 0)
(0.656716103211 1.16162364421e-07 0)
(0.656716085798 1.23916030077e-07 0)
(0.656716067924 1.3236295855e-07 0)
(0.65671605018 1.41615782718e-07 0)
(0.656716032415 1.51464211993e-07 0)
(0.656716014128 1.61787409566e-07 0)
(0.656715994793 1.72754485776e-07 0)
(0.656715974265 1.84625829178e-07 0)
(0.656715952811 1.97412814872e-07 0)
(0.65671593068 2.11164410346e-07 0)
(0.656715907874 2.2614766686e-07 0)
(0.656715884598 2.4223252959e-07 0)
(0.656715861373 2.58611271565e-07 0)
(0.656715838003 2.74908445362e-07 0)
(0.65671581348 2.91817581688e-07 0)
(0.656715787508 3.09920226146e-07 0)
(0.656715761044 3.28876099153e-07 0)
(0.656715734964 3.48458662585e-07 0)
(0.656715708919 3.69338543885e-07 0)
(0.656715682283 3.91992582599e-07 0)
(0.656715655447 4.1576570373e-07 0)
(0.656715628884 4.40085929316e-07 0)
(0.656715602436 4.65361930076e-07 0)
(0.656715576118 4.92055453402e-07 0)
(0.65671555042 5.2003708551e-07 0)
(0.656715525766 5.49040661488e-07 0)
(0.656715502221 5.79135853415e-07 0)
(0.656715480558 6.10380413256e-07 0)
(0.656715462183 6.42581258431e-07 0)
(0.65671544777 6.75638903801e-07 0)
(0.656715437971 7.09226879443e-07 0)
(0.656715434185 7.42731526224e-07 0)
(0.656715437741 7.76161356209e-07 0)
(0.656715449041 8.10550491548e-07 0)
(0.656715469609 8.47328796628e-07 0)
(0.656715505605 8.86198793645e-07 0)
(0.656715562563 9.24152547313e-07 0)
(0.656715643397 9.60529206065e-07 0)
(0.656715753458 9.95008905364e-07 0)
(0.656715900974 1.02528610968e-06 0)
(0.656716095178 1.0485927483e-06 0)
(0.656716346294 1.06294889683e-06 0)
(0.656716668175 1.0656875767e-06 0)
(0.656717079809 1.05363415783e-06 0)
(0.6567176063 1.02434809235e-06 0)
(0.656718274675 9.79867370338e-07 0)
(0.656719106415 9.19236813726e-07 0)
(0.656720134309 8.26831584827e-07 0)
(0.656721411099 6.89697249748e-07 0)
(0.656722997745 4.9415055371e-07 0)
(0.656724968073 2.22565982501e-07 0)
(0.656727412948 -1.45726678156e-07 0)
(0.656730444492 -6.36206774678e-07 0)
(0.656734202269 -1.28166764334e-06 0)
(0.656738859179 -2.12292031858e-06 0)
(0.656744628089 -3.20982009882e-06 0)
(0.656751771439 -4.60333368488e-06 0)
(0.656760616955 -6.38010663794e-06 0)
(0.656771573163 -8.6360145783e-06 0)
(0.65678513706 -1.14807240314e-05 0)
(0.656801926889 -1.50331216073e-05 0)
(0.656822713365 -1.95078141061e-05 0)
(0.6568484466 -2.51514321303e-05 0)
(0.656880310683 -3.2256773048e-05 0)
(0.656919770902 -4.11858899637e-05 0)
(0.656968640815 -5.23885390381e-05 0)
(0.657029168006 -6.64217140259e-05 0)
(0.657104136494 -8.39743920965e-05 0)
(0.657196999753 -0.00010590391177 0)
(0.657312040098 -0.000133276163339 0)
(0.657454568299 -0.000167412747866 0)
(0.6576311798 -0.00020995690586 0)
(0.65785006974 -0.000262957707958 0)
(0.658121430517 -0.000328979370689 0)
(0.658457947408 -0.000411232174767 0)
(0.6588754288 -0.000513743135247 0)
(0.659393614162 -0.000641595585802 0)
(0.660037197332 -0.000801235027346 0)
(0.660837154337 -0.00100087791789 0)
(0.661832467255 -0.00125107706254 0)
(0.663072392994 -0.00156550500696 0)
(0.66461950615 -0.00196208159397 0)
(0.666553823675 -0.0024646308142 0)
(0.668978558969 -0.00310541326027 0)
(0.672028355598 -0.00392918903961 0)
(0.675881451873 -0.00500012024268 0)
(0.680778385976 -0.00641434623024 0)
(0.687051712608 -0.0083245856075 0)
(0.695174694154 -0.0109915255105 0)
(0.705841993619 -0.0148970290658 0)
(0.720088571493 -0.0209984607196 0)
(0.739408484657 -0.0312785708839 0)
(0.765826547654 -0.0498618728442 0)
(0.801428584106 -0.0850978480684 0)
(0.842466608093 -0.150913653991 0)
(1.03384129016 0.171306945596 0)
(1.10231584931 0.27555674472 0)
(1.11663620489 0.26631237361 0)
(1.09207924757 0.219892602878 0)
(1.05195419773 0.168210316452 0)
(1.0102222139 0.123615336386 0)
(0.973507717901 0.0888850602396 0)
(0.943885947265 0.0630494625915 0)
(0.921162800357 0.0442607987018 0)
(0.904299823837 0.0307744353285 0)
(0.892086136288 0.0211830155128 0)
(0.883411233902 0.014417298425 0)
(0.87735506147 0.0096854415747 0)
(0.873196213796 0.00640758683323 0)
(0.870388061816 0.00416172317236 0)
(0.868526256739 0.00264232125247 0)
(0.86731729975 0.0016294770868 0)
(0.866551586869 0.000966024870604 0)
(0.866081660121 0.000540572338845 0)
(0.86580530275 0.000274926134954 0)
(0.865652727763 0.000114790829784 0)
(0.865577094305 2.29558908367e-05 0)
(0.865547480349 -2.57251889182e-05 0)
(0.865543941429 -4.80451935531e-05 0)
(0.86555398777 -5.49246929746e-05 0)
(0.86556998991 -5.33255952625e-05 0)
(0.865587526515 -4.75722085184e-05 0)
(0.865604216239 -4.02449972267e-05 0)
(0.865618929679 -3.27983622136e-05 0)
(0.865631276294 -2.59810169537e-05 0)
(0.865641277133 -2.01147956069e-05 0)
(0.865649160262 -1.52749376635e-05 0)
(0.865655237913 -1.14045772089e-05 0)
(0.865659835746 -8.38492292306e-06 0)
(0.865663255868 -6.07652532834e-06 0)
(0.865665760919 -4.34296985386e-06 0)
(0.865667569165 -3.06220515827e-06 0)
(0.865668855832 -2.13018349273e-06 0)
(0.865669757885 -1.46162817799e-06 0)
(0.865670380495 -9.88688683604e-07 0)
(0.865670803087 -6.59086138702e-07 0)
(0.865671084183 -4.33175672427e-07 0)
(0.865671266192 -2.80959261963e-07 0)
(0.865671379768 -1.80475906596e-07 0)
(0.865671446984 -1.15831896176e-07 0)
(0.865671483659 -7.57077417529e-08 0)
(0.865671500843 -5.23499846898e-08 0)
(0.865671505914 -4.03616931993e-08 0)
(0.865671504026 -3.49525426301e-08 0)
(0.865671497772 -3.30892475528e-08 0)
(0.865671488316 -3.37064248729e-08 0)
(0.865671476756 -3.6528870874e-08 0)
(0.865671463676 -4.05526971582e-08 0)
(0.865671449746 -4.50406571566e-08 0)
(0.86567143515 -5.00598850196e-08 0)
(0.865671419942 -5.52934559923e-08 0)
(0.865671404039 -6.05221089695e-08 0)
(0.865671386993 -6.57575750074e-08 0)
(0.865671368837 -7.11760572264e-08 0)
(0.865671350077 -7.70832773053e-08 0)
(0.865671331123 -8.32500593677e-08 0)
(0.865671312029 -8.91021074996e-08 0)
(0.865671292717 -9.45721515463e-08 0)
(0.865671272927 -1.00272706904e-07 0)
(0.865671252137 -1.06891342498e-07 0)
(0.865671229928 -1.14295740835e-07 0)
(0.865671206699 -1.21988777883e-07 0)
(0.865671183017 -1.29690759191e-07 0)
(0.865671158893 -1.37736133332e-07 0)
(0.865671134252 -1.46515317866e-07 0)
(0.865671108848 -1.56114646362e-07 0)
(0.865671082281 -1.66188031888e-07 0)
(0.865671054323 -1.76291760129e-07 0)
(0.865671025051 -1.86391652563e-07 0)
(0.865670994765 -1.96791500586e-07 0)
(0.865670963577 -2.07557074004e-07 0)
(0.865670931388 -2.18590012955e-07 0)
(0.865670898465 -2.3038447531e-07 0)
(0.865670865149 -2.43684088572e-07 0)
(0.865670831053 -2.58292293805e-07 0)
(0.865670795519 -2.73311376207e-07 0)
(0.865670758818 -2.88518891723e-07 0)
(0.865670722069 -3.04569846337e-07 0)
(0.865670685596 -3.21729907931e-07 0)
(0.865670648585 -3.39446158722e-07 0)
(0.865670610796 -3.57480830287e-07 0)
(0.865670572868 -3.76535900215e-07 0)
(0.865670535245 -3.97157964823e-07 0)
(0.865670498033 -4.19258460586e-07 0)
(0.865670461522 -4.42791168538e-07 0)
(0.865670426285 -4.68117717875e-07 0)
(0.865670392679 -4.95536297144e-07 0)
(0.865670361426 -5.25319251998e-07 0)
(0.865670333959 -5.5821927076e-07 0)
(0.86567031122 -5.94898695038e-07 0)
(0.86567029398 -6.35636451578e-07 0)
(0.865670284186 -6.81099282242e-07 0)
(0.865670284833 -7.32210966752e-07 0)
(0.865670299153 -7.88999128419e-07 0)
(0.86567032944 -8.5007049083e-07 0)
(0.865670376927 -9.15403330741e-07 0)
(0.865670445609 -9.88608455597e-07 0)
(0.865670542489 -1.07183455847e-06 0)
(0.865670674185 -1.16646147642e-06 0)
(0.865670849036 -1.27517756287e-06 0)
(0.865671077899 -1.40246771642e-06 0)
(0.865671373321 -1.55277984889e-06 0)
(0.865671750684 -1.73090173214e-06 0)
(0.865672229326 -1.94386639377e-06 0)
(0.865672833676 -2.20220078742e-06 0)
(0.865673594314 -2.52222578534e-06 0)
(0.865674547629 -2.92116201766e-06 0)
(0.865675739106 -3.4096106931e-06 0)
(0.865677225283 -4.00540394501e-06 0)
(0.865679074258 -4.7334830273e-06 0)
(0.865681371651 -5.62596115797e-06 0)
(0.865684223837 -6.72254641579e-06 0)
(0.865687761575 -8.07110644351e-06 0)
(0.865692147301 -9.73093600876e-06 0)
(0.865697582695 -1.17767695631e-05 0)
(0.8657043173 -1.4301132979e-05 0)
(0.865712658669 -1.74176179444e-05 0)
(0.865722988312 -2.12674689617e-05 0)
(0.865735781642 -2.60310014332e-05 0)
(0.865751623872 -3.19358568898e-05 0)
(0.865771238636 -3.92559011106e-05 0)
(0.865795523425 -4.832692628e-05 0)
(0.865825587792 -5.95572315925e-05 0)
(0.86586280927 -7.34567193898e-05 0)
(0.865908893934 -9.06629449137e-05 0)
(0.865965955604 -0.000111969472239 0)
(0.866036614828 -0.00013836312202 0)
(0.866124116242 -0.00017106741992 0)
(0.866232481485 -0.000211602936057 0)
(0.86636669815 -0.000261863983959 0)
(0.866532951894 -0.00032420573549 0)
(0.866738919215 -0.000401558487231 0)
(0.86699412929 -0.000497575576653 0)
(0.86731042351 -0.000616823863166 0)
(0.867702529368 -0.000765023986387 0)
(0.868188775454 -0.000949354913996 0)
(0.868792005586 -0.00117886254599 0)
(0.869540739638 -0.00146499582362 0)
(0.870470658406 -0.00182232085976 0)
(0.871626515193 -0.00226949719472 0)
(0.873064620225 -0.00283062189981 0)
(0.874856115814 -0.00353714800942 0)
(0.877091335134 -0.00443068140508 0)
(0.87988571279 -0.00556718676989 0)
(0.883387929013 -0.00702360665053 0)
(0.887791315839 -0.00890873480231 0)
(0.893350045767 -0.0113820149996 0)
(0.900401987267 -0.0146876884693 0)
(0.909399763666 -0.0192192435791 0)
(0.920948011109 -0.025644048478 0)
(0.935825548755 -0.0351431114018 0)
(0.954908424982 -0.0498387017148 0)
(0.978830072677 -0.0734246704214 0)
(1.00694289673 -0.111752359044 0)
(1.03342526121 -0.171607545797 0)
(1.02388346745 0.119321984243 0)
(1.08875436588 0.231514421956 0)
(1.1366048291 0.252868941368 0)
(1.15406272827 0.228905048095 0)
(1.1500011248 0.188337386302 0)
(1.13537623707 0.146577292415 0)
(1.11757777606 0.110164821146 0)
(1.10059199661 0.0808376067153 0)
(1.0861224117 0.0582502007949 0)
(1.0745876173 0.0413417858958 0)
(1.06578679434 0.0289362826115 0)
(1.05928156302 0.0199770190308 0)
(1.05459132255 0.0135949285892 0)
(1.05128026322 0.00910742587275 0)
(1.04898735621 0.00599313193722 0)
(1.04742904704 0.00386144042698 0)
(1.04639045415 0.0024241362597 0)
(1.04571298628 0.00147134827892 0)
(1.04528205499 0.000852136215466 0)
(1.04501637305 0.000459263375388 0)
(1.04485925023 0.000217489679279 0)
(1.04477182012 7.47184647246e-05 0)
(1.04472783819 -4.64497028818e-06 0)
(1.04470997118 -4.44441908052e-05 0)
(1.04470704377 -6.05339410621e-05 0)
(1.04471196541 -6.30910989271e-05 0)
(1.04472040493 -5.85417406844e-05 0)
(1.04472984608 -5.08091841032e-05 0)
(1.04473892082 -4.21783484631e-05 0)
(1.04474696805 -3.38915667076e-05 0)
(1.0447537474 -2.65474220587e-05 0)
(1.04475925443 -2.03621812529e-05 0)
(1.04476360505 -1.53381948229e-05 0)
(1.04476696533 -1.13690573428e-05 0)
(1.04476951097 -8.30272199233e-06 0)
(1.04477140658 -5.97840526327e-06 0)
(1.04477279619 -4.24589495947e-06 0)
(1.04477379984 -2.97438581672e-06 0)
(1.04477451415 -2.05451509246e-06 0)
(1.04477501472 -1.39796087823e-06 0)
(1.04477535964 -9.35733124186e-07 0)
(1.04477559277 -6.15056537634e-07 0)
(1.04477574659 -3.95928212622e-07 0)
(1.04477584476 -2.48250497011e-07 0)
(1.04477590459 -1.49981682996e-07 0)
(1.04477593872 -8.54597453494e-08 0)
(1.04477595608 -4.3880889953e-08 0)
(1.04477596238 -1.79156024478e-08 0)
(1.04477596094 -2.46134203604e-09 0)
(1.04477595397 5.63020786794e-09 0)
(1.04477594291 9.41059330477e-09 0)
(1.0447759293 1.06872253973e-08 0)
(1.04477591452 1.09725867197e-08 0)
(1.0447758989 1.08869124688e-08 0)
(1.04477588284 1.05304075392e-08 0)
(1.04477586651 1.00905673515e-08 0)
(1.04477584934 9.45858196545e-09 0)
(1.04477583092 8.84170454845e-09 0)
(1.04477581116 8.58518889222e-09 0)
(1.04477579048 8.76557949012e-09 0)
(1.04477576946 9.27636088384e-09 0)
(1.04477574831 1.02664822523e-08 0)
(1.04477572676 1.1878979667e-08 0)
(1.04477570426 1.38942805393e-08 0)
(1.04477568048 1.58561313678e-08 0)
(1.04477565543 1.76565943666e-08 0)
(1.0447756293 1.96822567626e-08 0)
(1.04477560224 2.18842836935e-08 0)
(1.04477557428 2.41124737021e-08 0)
(1.04477554547 2.61989758181e-08 0)
(1.04477551589 2.81394374394e-08 0)
(1.0447754854 3.025620948e-08 0)
(1.04477545362 3.29109094687e-08 0)
(1.04477542024 3.61637437041e-08 0)
(1.04477538544 3.9744264391e-08 0)
(1.04477534959 4.34954259795e-08 0)
(1.04477531257 4.7621705347e-08 0)
(1.04477527417 5.21271707678e-08 0)
(1.04477523473 5.64160911453e-08 0)
(1.04477519462 6.00669903582e-08 0)
(1.04477515357 6.36465905318e-08 0)
(1.04477511119 6.80086597893e-08 0)
(1.04477506794 7.31058689811e-08 0)
(1.0447750246 7.82098150347e-08 0)
(1.04477498108 8.31879656666e-08 0)
(1.04477493674 8.84972071024e-08 0)
(1.04477489144 9.40028674719e-08 0)
(1.04477484578 9.91099657565e-08 0)
(1.04477480034 1.03652914627e-07 0)
(1.04477475536 1.0784375026e-07 0)
(1.04477471119 1.11666303016e-07 0)
(1.04477466819 1.14839866202e-07 0)
(1.04477462689 1.16909393071e-07 0)
(1.04477458869 1.16881194249e-07 0)
(1.04477455502 1.13675427192e-07 0)
(1.04477452683 1.06847203366e-07 0)
(1.04477450539 9.59438205863e-08 0)
(1.04477449318 7.95011158095e-08 0)
(1.04477449327 5.52603832294e-08 0)
(1.04477450796 2.05966379778e-08 0)
(1.04477454043 -2.69671535291e-08 0)
(1.04477459611 -8.87330830796e-08 0)
(1.04477468155 -1.68044181477e-07 0)
(1.04477480362 -2.69179814851e-07 0)
(1.04477497064 -3.96466590385e-07 0)
(1.04477519372 -5.56134612498e-07 0)
(1.04477548661 -7.5560994446e-07 0)
(1.04477586585 -1.00329038155e-06 0)
(1.04477635192 -1.30915553726e-06 0)
(1.04477696996 -1.68555400462e-06 0)
(1.04477775057 -2.1483871407e-06 0)
(1.04477873073 -2.71804196436e-06 0)
(1.04477995734 -3.41938269152e-06 0)
(1.04478148906 -4.28405097119e-06 0)
(1.04478339693 -5.35050438273e-06 0)
(1.04478576956 -6.66616905342e-06 0)
(1.04478871778 -8.2907128967e-06 0)
(1.04479237832 -1.02962148249e-05 0)
(1.04479691957 -1.27708151134e-05 0)
(1.04480255014 -1.58244650319e-05 0)
(1.04480952939 -1.95944606273e-05 0)
(1.04481817773 -2.42514820532e-05 0)
(1.04482889106 -3.00060275982e-05 0)
(1.04484216084 -3.71213298868e-05 0)
(1.04485859462 -4.59271084297e-05 0)
(1.044878944 -5.68287504882e-05 0)
(1.04490413963 -7.03263860304e-05 0)
(1.04493533224 -8.70350652022e-05 0)
(1.04497394915 -0.000107717147929 0)
(1.04502175886 -0.000133318975134 0)
(1.04508095166 -0.000165014160673 0)
(1.04515424305 -0.000204260656304 0)
(1.04524499549 -0.000252867099982 0)
(1.04535737196 -0.000313077387261 0)
(1.04549653209 -0.000387682237702 0)
(1.04566887376 -0.000480152652785 0)
(1.04588233174 -0.000594807896828 0)
(1.04614674561 -0.00073702900183 0)
(1.04647432477 -0.000913530761132 0)
(1.0468802314 -0.00113271634209 0)
(1.0473833022 -0.00140512353405 0)
(1.04800695816 -0.00174400238293 0)
(1.04878035035 -0.00216608194867 0)
(1.04973980897 -0.00269258368358 0)
(1.05093068293 -0.00335058793574 0)
(1.05240967786 -0.00417490337477 0)
(1.05424785702 -0.00521068504236 0)