/*--------------------------------*- C++ -*----------------------------------*\
| =========                 |                                                 |
| \\      /  F ield         | OpenFOAM: The Open Source CFD Toolbox           |
|  \\    /   O peration     | Version:  2106                                  |
|   \\  /    A nd           | Website:  www.openfoam.com                      |
|    \\/     M anipulation  |                                                 |
\*---------------------------------------------------------------------------*/
FoamFile
{
    version     2.0;
    format      ascii;
    arch        "LSB;label=32;scalar=64";
    class       volVectorField;
    location    "0.23";
    object      U;
}
// * * * * * * * * * * * * * * * * * * * * * * * * * * * * * * * * * * * * * //

dimensions      [0 1 -1 0 0 0 0];

internalField   nonuniform List<vector> 
9600
(
(0.675396182508 0.157677435709 0)
(0.563826157794 0.102430805337 0)
(0.381538929552 0.0510646937485 0)
(0.283853186485 0.0244589894358 0)
(0.232281025304 0.0119348221721 0)
(0.20190770444 0.00623035718777 0)
(0.183178400035 0.00352192594016 0)
(0.171271979843 0.00212007435604 0)
(0.16351223477 0.00132523494317 0)
(0.158392654405 0.000841456327533 0)
(0.155010694518 0.000534135544319 0)
(0.152789978061 0.000335039656456 0)
(0.151348691575 0.000205521554119 0)
(0.150429245322 0.000121792520921 0)
(0.14985645831 6.84342304744e-05 0)
(0.149511122075 3.51731291586e-05 0)
(0.149312512541 1.50863119245e-05 0)
(0.149206462285 3.50342553736e-06 0)
(0.149157081598 -2.70714743678e-06 0)
(0.149140972126 -5.61180734396e-06 0)
(0.149143256437 -6.52783351568e-06 0)
(0.149154653899 -6.41850640375e-06 0)
(0.149169593936 -5.78217450455e-06 0)
(0.149184966931 -4.92817332684e-06 0)
(0.14919913879 -4.04271519961e-06 0)
(0.149211387474 -3.22382395932e-06 0)
(0.14922152515 -2.51496243604e-06 0)
(0.149229652995 -1.92844546051e-06 0)
(0.149236007924 -1.4587769695e-06 0)
(0.14924087396 -1.09177140678e-06 0)
(0.149244533718 -8.11228237308e-07 0)
(0.149247242226 -6.0141863158e-07 0)
(0.149249216628 -4.47438252382e-07 0)
(0.149250635394 -3.3600137061e-07 0)
(0.149251640829 -2.56125980737e-07 0)
(0.149252343606 -1.99657401799e-07 0)
(0.149252827568 -1.60070889237e-07 0)
(0.149253155134 -1.31724487006e-07 0)
(0.149253373435 -1.1086692897e-07 0)
(0.14925351676 -9.50534237286e-08 0)
(0.149253608848 -8.255729852e-08 0)
(0.149253667379 -7.31069904156e-08 0)
(0.149253703297 -6.94635519156e-08 0)
(0.14925372298 -7.01584970578e-08 0)
(0.149253732297 -7.30568034257e-08 0)
(0.149253735415 -7.76501279488e-08 0)
(0.149253734471 -8.36950961683e-08 0)
(0.149253731511 -9.11995303595e-08 0)
(0.149253728525 -1.00124585466e-07 0)
(0.149253725657 -1.0993489668e-07 0)
(0.149253722467 -1.19574172744e-07 0)
(0.149253719475 -1.29092194556e-07 0)
(0.149253717577 -1.39487920472e-07 0)
(0.149253716621 -1.5109203323e-07 0)
(0.149253715646 -1.63148139492e-07 0)
(0.149253714264 -1.74922656737e-07 0)
(0.149253713185 -1.87057223812e-07 0)
(0.149253712718 -2.00905065144e-07 0)
(0.149253711227 -2.1633774079e-07 0)
(0.149253707538 -2.32253796433e-07 0)
(0.149253702931 -2.48757973693e-07 0)
(0.149253698455 -2.66698450806e-07 0)
(0.149253693361 -2.85957722994e-07 0)
(0.149253687666 -3.06466305643e-07 0)
(0.149253681964 -3.2850836199e-07 0)
(0.149253675612 -3.51702478932e-07 0)
(0.149253668774 -3.76205697963e-07 0)
(0.149253662064 -4.02779364805e-07 0)
(0.149253654152 -4.30750123406e-07 0)
(0.149253644671 -4.59619742074e-07 0)
(0.149253635617 -4.90738359037e-07 0)
(0.149253627517 -5.24541138966e-07 0)
(0.14925361945 -5.59859924924e-07 0)
(0.149253611513 -5.96282289916e-07 0)
(0.149253604231 -6.34250127882e-07 0)
(0.149253597447 -6.74287052392e-07 0)
(0.149253590006 -7.16613463151e-07 0)
(0.149253580825 -7.61063013241e-07 0)
(0.149253571544 -8.08220457968e-07 0)
(0.149253564786 -8.589694099e-07 0)
(0.149253558757 -9.11827500794e-07 0)
(0.149253551061 -9.65150640244e-07 0)
(0.149253544077 -1.02089636045e-06 0)
(0.149253538647 -1.08064080875e-06 0)
(0.149253532338 -1.14287930274e-06 0)
(0.149253525922 -1.20716683139e-06 0)
(0.149253521461 -1.27469469949e-06 0)
(0.149253517718 -1.34540240194e-06 0)
(0.149253513341 -1.41851572612e-06 0)
(0.14925350918 -1.49412424202e-06 0)
(0.149253505605 -1.57277971731e-06 0)
(0.149253501909 -1.65470312344e-06 0)
(0.149253498233 -1.73935088042e-06 0)
(0.149253495812 -1.82661807794e-06 0)
(0.149253495268 -1.91758435095e-06 0)
(0.149253495537 -2.01186128454e-06 0)
(0.149253496747 -2.10800209971e-06 0)
(0.149253501455 -2.20670338793e-06 0)
(0.149253509545 -2.30832320082e-06 0)
(0.14925351972 -2.41154955136e-06 0)
(0.149253533893 -2.51638248025e-06 0)
(0.14925355377 -2.62340464336e-06 0)
(0.149253580122 -2.73180541511e-06 0)
(0.149253614532 -2.84117754431e-06 0)
(0.149253659991 -2.95357492562e-06 0)
(0.149253718941 -3.07016432835e-06 0)
(0.14925379221 -3.18876862191e-06 0)
(0.149253884556 -3.30878465123e-06 0)
(0.149254003133 -3.43275698787e-06 0)
(0.149254152317 -3.56453044462e-06 0)
(0.149254338125 -3.71019987563e-06 0)
(0.149254571475 -3.87044121021e-06 0)
(0.14925486425 -4.04294210796e-06 0)
(0.149255227151 -4.22563786154e-06 0)
(0.149255675674 -4.41710649826e-06 0)
(0.149256232713 -4.61830241625e-06 0)
(0.149256924666 -4.83134610662e-06 0)
(0.149257782631 -5.05950567196e-06 0)
(0.149258845205 -5.3032926858e-06 0)
(0.149260162644 -5.56290846111e-06 0)
(0.149261797376 -5.84173152916e-06 0)
(0.149263820137 -6.1428931698e-06 0)
(0.149266324806 -6.47425930473e-06 0)
(0.149269446021 -6.86232525412e-06 0)
(0.149273344586 -7.38109426456e-06 0)
(0.149278160257 -8.11527911393e-06 0)
(0.149284085245 -9.00472082102e-06 0)
(0.149291408178 -1.00180633758e-05 0)
(0.149300472887 -1.11546884288e-05 0)
(0.149311699288 -1.24270203238e-05 0)
(0.149325607798 -1.38587437857e-05 0)
(0.149342833857 -1.54763562236e-05 0)
(0.149364165781 -1.7310334666e-05 0)
(0.149390590266 -1.94036499917e-05 0)
(0.149423325476 -2.18099475759e-05 0)
(0.149463883549 -2.45961805568e-05 0)
(0.149514145058 -2.78452329969e-05 0)
(0.149576445579 -3.16626830938e-05 0)
(0.149653693751 -3.61839538637e-05 0)
(0.149749510551 -4.1576799767e-05 0)
(0.149868414795 -4.805533365e-05 0)
(0.15001606005 -5.58962476344e-05 0)
(0.150199524889 -6.54505301113e-05 0)
(0.150427699351 -7.71643586085e-05 0)
(0.150711801444 -9.16157260993e-05 0)
(0.151066041158 -0.000109554988564 0)
(0.151508506141 -0.000131953464791 0)
(0.152062385392 -0.000160084968494 0)
(0.152757659141 -0.000195639552596 0)
(0.153633471265 -0.000240865965154 0)
(0.154741608775 -0.000298792828071 0)
(0.156151873042 -0.000373657774636 0)
(0.157961137013 -0.000472116575964 0)
(0.160311532636 -0.000607646416596 0)
(0.163433779901 -0.000817533294521 0)
(0.167756175554 -0.00122561030661 0)
(0.174241766485 -0.00227139615718 0)
(0.185764192831 -0.0055937247652 0)
(0.21106186766 -0.0174256523648 0)
(0.266880944675 -0.0609377651115 0)
(0.977201172625 0.296997122069 0)
(0.962687461813 0.250387269311 0)
(0.820646032812 0.158581011582 0)
(0.69782489464 0.0957993471595 0)
(0.610491664273 0.0579132752154 0)
(0.54913331043 0.0359038501637 0)
(0.506705978186 0.022930935218 0)
(0.4776620128 0.0149788773647 0)
(0.457815292726 0.00990973052636 0)
(0.444277669049 0.00658330968513 0)
(0.435087222691 0.00436198795372 0)
(0.428895554796 0.00286682817545 0)
(0.424768038525 0.00185972223461 0)
(0.422054230653 0.00118457335948 0)
(0.42030104904 0.000736111036957 0)
(0.419193676048 0.00044215861823 0)
(0.418514606734 0.000252858606275 0)
(0.418114830339 0.000133737485898 0)
(0.417893371423 6.10507329994e-05 0)
(0.417782728066 1.85763001499e-05 0)
(0.417738471001 -4.63594665561e-06 0)
(0.417731934863 -1.60116924833e-05 0)
(0.417745151787 -2.03073777371e-05 0)
(0.417767175933 -2.06094813772e-05 0)
(0.417791626027 -1.88561781695e-05 0)
(0.417815040401 -1.6221931812e-05 0)
(0.417835758929 -1.33842325233e-05 0)
(0.417853190345 -1.07065231749e-05 0)
(0.417867339474 -8.35841459376e-06 0)
(0.417878511674 -6.39444387613e-06 0)
(0.41788713728 -4.8071497471e-06 0)
(0.417893671058 -3.55875906855e-06 0)
(0.417898537956 -2.59824620436e-06 0)
(0.417902108285 -1.87219852118e-06 0)
(0.417904689705 -1.33141449671e-06 0)
(0.417906530104 -9.34495965631e-07 0)
(0.417907824402 -6.47486596262e-07 0)
(0.417908721319 -4.41966982075e-07 0)
(0.417909333541 -2.95941124062e-07 0)
(0.417909745218 -1.93625846218e-07 0)
(0.417910016651 -1.23298633403e-07 0)
(0.417910190009 -7.63364404293e-08 0)
(0.417910296544 -4.82430163993e-08 0)
(0.417910359516 -3.30039833647e-08 0)
(0.417910393802 -2.53834898563e-08 0)
(0.417910409408 -2.24210419282e-08 0)
(0.417910412876 -2.10920903319e-08 0)
(0.417910409127 -1.94652293824e-08 0)
(0.417910402502 -1.87609455426e-08 0)
(0.417910395298 -1.96873489105e-08 0)
(0.417910387603 -2.09626394268e-08 0)
(0.417910378908 -2.15865499581e-08 0)
(0.417910370188 -2.23680177429e-08 0)
(0.417910362827 -2.42064061062e-08 0)
(0.417910356751 -2.67278087232e-08 0)
(0.417910350351 -2.85499844548e-08 0)
(0.417910342571 -2.96492522731e-08 0)
(0.417910334386 -3.20085129268e-08 0)
(0.41791032618 -3.59943801339e-08 0)
(0.41791031658 -3.99748131861e-08 0)
(0.417910305271 -4.34818368421e-08 0)
(0.417910293295 -4.75799751701e-08 0)
(0.417910280303 -5.19206882032e-08 0)
(0.417910265911 -5.60043209143e-08 0)
(0.417910251266 -6.00978768733e-08 0)
(0.417910236165 -6.35938716949e-08 0)
(0.417910219976 -6.67642741956e-08 0)
(0.417910203781 -7.13609315865e-08 0)
(0.417910186881 -7.67524085146e-08 0)
(0.417910166999 -8.09158984044e-08 0)
(0.417910145358 -8.46620034089e-08 0)
(0.417910124656 -8.94289136592e-08 0)
(0.417910104933 -9.45972913386e-08 0)
(0.417910085298 -9.92784235963e-08 0)
(0.417910065673 -1.03665187066e-07 0)
(0.417910045986 -1.09031707599e-07 0)
(0.417910025236 -1.15962714517e-07 0)
(0.417910001628 -1.22754717387e-07 0)
(0.417909976041 -1.28627919002e-07 0)
(0.417909953261 -1.36114487603e-07 0)
(0.417909933752 -1.45230921929e-07 0)
(0.417909912169 -1.52764835361e-07 0)
(0.417909888223 -1.60045224145e-07 0)
(0.417909865599 -1.69851457058e-07 0)
(0.417909843458 -1.7979781099e-07 0)
(0.417909820472 -1.8814264306e-07 0)
(0.417909798648 -1.97200848083e-07 0)
(0.417909778579 -2.07702585098e-07 0)
(0.41790975889 -2.18135608222e-07 0)
(0.417909739276 -2.28613806353e-07 0)
(0.417909719906 -2.40373019937e-07 0)
(0.417909701257 -2.5349732279e-07 0)
(0.41790968445 -2.66634871704e-07 0)
(0.417909669921 -2.79640711973e-07 0)
(0.417909658502 -2.95106880489e-07 0)
(0.417909651127 -3.13135426202e-07 0)
(0.417909647806 -3.30777431671e-07 0)
(0.417909651106 -3.4944197781e-07 0)
(0.4179096637 -3.72115242001e-07 0)
(0.417909685377 -3.98795359457e-07 0)
(0.417909717685 -4.29616540191e-07 0)
(0.417909764704 -4.65732176886e-07 0)
(0.417909830086 -5.06221051851e-07 0)
(0.41790991569 -5.49537916685e-07 0)
(0.417910026559 -5.9821531628e-07 0)
(0.417910172376 -6.5533482795e-07 0)
(0.417910359983 -7.19129948444e-07 0)
(0.417910596524 -7.88161750753e-07 0)
(0.417910893507 -8.6439807278e-07 0)
(0.41791126145 -9.469520257e-07 0)
(0.417911720694 -1.02735406367e-06 0)
(0.417912303811 -1.10775878622e-06 0)
(0.417913042443 -1.2002877637e-06 0)
(0.417913968038 -1.31153387576e-06 0)
(0.417915120545 -1.44351689102e-06 0)
(0.417916553653 -1.60147984622e-06 0)
(0.417918333215 -1.79426607266e-06 0)
(0.417920542408 -2.03364537179e-06 0)
(0.417923285382 -2.32987779092e-06 0)
(0.417926688374 -2.69573453849e-06 0)
(0.417930908899 -3.15242842098e-06 0)
(0.417936136202 -3.72229490155e-06 0)
(0.417942600582 -4.43422168219e-06 0)
(0.417950582968 -5.33889248816e-06 0)
(0.417960435995 -6.52854524817e-06 0)
(0.417972661823 -8.12129967026e-06 0)
(0.417987872674 -1.01486053096e-05 0)
(0.41800675395 -1.26758942546e-05 0)
(0.418030162154 -1.58052077322e-05 0)
(0.418059169646 -1.96704862611e-05 0)
(0.418095114752 -2.44499326586e-05 0)
(0.418139653129 -3.03603289006e-05 0)
(0.418194830816 -3.76623742851e-05 0)
(0.418263192282 -4.66861782523e-05 0)
(0.418347891823 -5.78413596164e-05 0)
(0.418452845282 -7.16343486068e-05 0)
(0.418582918039 -8.86960282595e-05 0)
(0.418744153267 -0.000109813115176 0)
(0.418944074833 -0.000135970976773 0)
(0.41919205164 -0.000168402997238 0)
(0.41949976676 -0.000208661490391 0)
(0.419881830893 -0.000258713048028 0)
(0.420356548591 -0.000321054082615 0)
(0.420946908177 -0.000398867932767 0)
(0.421681900064 -0.000496253071167 0)
(0.422598256171 -0.000618533503311 0)
(0.423742768592 -0.000772687691703 0)
(0.425175482469 -0.000967984516576 0)
(0.426974206446 -0.00121696231562 0)
(0.429241031324 -0.0015369719352 0)
(0.432112186444 -0.00195279513599 0)
(0.435773773272 -0.00250158819588 0)
(0.440488465689 -0.0032433723488 0)
(0.446644688001 -0.00428624151384 0)
(0.454853709233 -0.00585332076141 0)
(0.46613562741 -0.0084677197001 0)
(0.482269425074 -0.0134655548194 0)
(0.506685192879 -0.0244765206733 0)
(0.546070234374 -0.0516443714592 0)
(0.604778276498 -0.119579221341 0)
(1.03387038696 0.239240962538 0)
(1.08314081672 0.29363438003 0)
(1.03294437827 0.239131933392 0)
(0.95440820739 0.174539018436 0)
(0.880112581086 0.121551462675 0)
(0.818677610558 0.0832335919664 0)
(0.771466783279 0.0568258114418 0)
(0.736691561751 0.0388125722781 0)
(0.711672089897 0.0264913170147 0)
(0.693953117802 0.0180235771128 0)
(0.681568193066 0.0121876218971 0)
(0.673018594637 0.00816650540827 0)
(0.667192227401 0.00540556784321 0)
(0.663277746025 0.00352226376392 0)
(0.660690308484 0.00224961209348 0)
(0.659012733871 0.0014000275215 0)
(0.657950525808 0.000841455003252 0)
(0.657298071434 0.000481121675066 0)
(0.656913526922 0.000254192626404 0)
(0.656700335351 0.00011570980205 0)
(0.656593727625 3.47958755677e-05 0)
(0.656551015443 -9.46550299697e-06 0)
(0.656544673895 -3.1009414205e-05 0)
(0.656557372293 -3.90726602124e-05 0)
(0.656578555689 -3.95450946332e-05 0)
(0.656602079145 -3.61183980623e-05 0)
(0.656624608389 -3.10294875283e-05 0)
(0.656644545124 -2.55676573342e-05 0)
(0.656661319719 -2.04225438245e-05 0)
(0.656674935399 -1.59147371195e-05 0)
(0.656685685336 -1.21474388275e-05 0)
(0.656693984172 -9.10463725395e-06 0)
(0.656700270364 -6.7109800825e-06 0)
(0.656704953162 -4.86820986749e-06 0)
(0.656708387888 -3.4754727785e-06 0)
(0.656710870052 -2.43981783843e-06 0)
(0.656712638836 -1.68186199097e-06 0)
(0.656713881557 -1.13557363527e-06 0)
(0.656714741686 -7.47441427278e-07 0)
(0.656715327722 -4.76610851791e-07 0)
(0.656715720304 -2.91862835072e-07 0)
(0.656715978084 -1.68866269761e-07 0)
(0.656716143235 -8.82305860258e-08 0)
(0.656716245643 -3.67734123476e-08 0)
(0.656716305808 -5.06432058339e-09 0)
(0.656716339068 1.34540520208e-08 0)
(0.656716355593 2.37828023576e-08 0)
(0.656716359823 3.02644272929e-08 0)
(0.656716355376 3.46318727543e-08 0)
(0.656716347005 3.74198775581e-08 0)
(0.656716337598 3.95224632707e-08 0)
(0.656716327335 4.24654657677e-08 0)
(0.656716316286 4.65851467459e-08 0)
(0.656716305496 5.08362048108e-08 0)
(0.656716295949 5.41007227939e-08 0)
(0.656716287039 5.69994699541e-08 0)
(0.656716276751 6.11983097833e-08 0)
(0.656716265065 6.62608500988e-08 0)
(0.65671625325 7.10141457938e-08 0)
(0.656716240777 7.57427486095e-08 0)
(0.656716226727 8.11093345586e-08 0)
(0.656716211752 8.66976541928e-08 0)
(0.656716195899 9.23535774011e-08 0)
(0.656716178687 9.89126224303e-08 0)
(0.656716161304 1.06193770015e-07 0)
(0.656716143525 1.14014525838e-07 0)
(0.656716123667 1.22998515855e-07 0)
(0.656716102751 1.32258960497e-07 0)
(0.656716081919 1.405612624e-07 0)
(0.656716059283 1.49289015926e-07 0)
(0.656716034117 1.60192885644e-07 0)
(0.656716008288 1.72570565678e-07 0)
(0.656715983038 1.85223968479e-07 0)
(0.656715958273 1.98589063443e-07 0)
(0.656715933058 2.13289158443e-07 0)
(0.656715906722 2.27974992684e-07 0)
(0.656715879944 2.41276901389e-07 0)
(0.65671585223 2.55319076785e-07 0)
(0.656715821926 2.73055811716e-07 0)
(0.656715791652 2.92527394211e-07 0)
(0.656715764575 3.10267430633e-07 0)
(0.656715737006 3.28028972466e-07 0)
(0.65671570629 3.48163533652e-07 0)
(0.656715676257 3.68946877635e-07 0)
(0.656715648183 3.8990878521e-07 0)
(0.656715619379 4.12957600499e-07 0)
(0.65671559032 4.37999972092e-07 0)
(0.656715563124 4.64052735893e-07 0)
(0.656715537163 4.91338219563e-07 0)
(0.656715511039 5.19549890893e-07 0)
(0.656715484933 5.48109360533e-07 0)
(0.656715460718 5.77470383317e-07 0)
(0.656715440038 6.08553012226e-07 0)
(0.656715421768 6.41523448877e-07 0)
(0.656715406218 6.74608103558e-07 0)
(0.656715396918 7.06564057059e-07 0)
(0.656715394362 7.396131445e-07 0)
(0.656715398623 7.7477596883e-07 0)
(0.656715412589 8.10185310962e-07 0)
(0.656715438745 8.46838055904e-07 0)
(0.65671548013 8.85401145389e-07 0)
(0.656715542264 9.23005195337e-07 0)
(0.656715631882 9.5728504757e-07 0)
(0.656715752438 9.88705714857e-07 0)
(0.656715908939 1.0171431798e-06 0)
(0.656716113995 1.03844155996e-06 0)
(0.656716380252 1.04951021561e-06 0)
(0.656716720188 1.04948094985e-06 0)
(0.65671715395 1.03514436295e-06 0)
(0.656717710262 1.00317621422e-06 0)
(0.656718413787 9.56724156355e-07 0)
(0.656719285118 8.91316701754e-07 0)
(0.656720362876 7.91338419455e-07 0)
(0.656721702853 6.40860729589e-07 0)
(0.656723368715 4.27111863419e-07 0)
(0.656725437258 1.33843486989e-07 0)
(0.656728002475 -2.61236664527e-07 0)
(0.656731183023 -7.85342872994e-07 0)
(0.65673512657 -1.47182023815e-06 0)
(0.656740012035 -2.3620913829e-06 0)
(0.656746065429 -3.51110371209e-06 0)
(0.656753564785 -4.98430283581e-06 0)
(0.656762850903 -6.86056288581e-06 0)
(0.656774352017 -9.2391336731e-06 0)
(0.6567885914 -1.22305686505e-05 0)
(0.656806218117 -1.59735663806e-05 0)
(0.656828040848 -2.0689783246e-05 0)
(0.656855059814 -2.66379139472e-05 0)
(0.656888519609 -3.41252934999e-05 0)
(0.656929955679 -4.35276820385e-05 0)
(0.656981273629 -5.53172297384e-05 0)
(0.657044837449 -7.00823838331e-05 0)
(0.657123568616 -8.85462612435e-05 0)
(0.657221092791 -0.00011160792195 0)
(0.657341907924 -0.000140384434791 0)
(0.657491595391 -0.00017626244562 0)
(0.657677086664 -0.000220969726531 0)
(0.657906990821 -0.000276658182052 0)
(0.65819201652 -0.000346017990887 0)
(0.658545492379 -0.00043242094767 0)
(0.65898402835 -0.000540099881121 0)
(0.659528369101 -0.000674395203592 0)
(0.660204472903 -0.000842081282268 0)
(0.66104489554 -0.00105179389662 0)
(0.662090607998 -0.00131461957148 0)
(0.663393392381 -0.00164493310458 0)
(0.665019031312 -0.00206157988128 0)
(0.667051642377 -0.00258959402887 0)
(0.669599715137 -0.00326285978518 0)
(0.672804741125 -0.00412836354445 0)
(0.676853954241 -0.00525336395295 0)
(0.681999852021 -0.00673843270843 0)
(0.688591152901 -0.00874285955119 0)
(0.697123450991 -0.0115375873174 0)
(0.708323089667 -0.0156217528346 0)
(0.723271173401 -0.0219847406465 0)
(0.743528683694 -0.0326745587376 0)
(0.77121409868 -0.051957003724 0)
(0.808535873533 -0.0885014214174 0)
(0.85172528566 -0.156940954864 0)
(1.03384128292 0.171306945963 0)
(1.102315848 0.275556746603 0)
(1.1166362101 0.266312372454 0)
(1.09207924728 0.219892602507 0)
(1.05195419527 0.168210316235 0)
(1.01022220971 0.123615334647 0)
(0.973507709862 0.0888850587203 0)
(0.943885936129 0.0630494621276 0)
(0.921162789535 0.0442607984696 0)
(0.904299814165 0.0307744361798 0)
(0.892086129258 0.0211830181784 0)
(0.883411231202 0.0144173016671 0)
(0.877355062527 0.00968544499749 0)
(0.873196217992 0.00640758938211 0)
(0.870388067651 0.00416172456195 0)
(0.868526262912 0.00264232174926 0)
(0.867317305533 0.00162947640944 0)
(0.866551591841 0.000966022938926 0)
(0.866081664837 0.000540569551726 0)
(0.865805307568 0.000274923304337 0)
(0.865652733656 0.000114788376703 0)
(0.865577102602 2.29535245284e-05 0)
(0.865547491454 -2.57276223694e-05 0)
(0.865543954663 -4.80478444686e-05 0)
(0.865554002231 -5.49278662053e-05 0)
(0.865570005276 -5.33297620739e-05 0)
(0.865587542593 -4.7577285679e-05 0)
(0.865604232234 -4.02494451719e-05 0)
(0.86561894502 -3.28010632239e-05 0)
(0.865631291068 -2.59825118995e-05 0)
(0.86564129118 -2.01156493842e-05 0)
(0.86564917345 -1.52750870886e-05 0)
(0.865655250422 -1.14035073274e-05 0)
(0.865659848114 -8.38261344951e-06 0)
(0.865663268741 -6.07393495383e-06 0)
(0.865665774103 -4.34049626105e-06 0)
(0.865667582355 -3.05945807079e-06 0)
(0.865668869108 -2.12707757692e-06 0)
(0.865669771441 -1.45824434363e-06 0)
(0.865670394587 -9.85543592872e-07 0)
(0.865670818156 -6.56520911953e-07 0)
(0.865671101021 -4.31349527008e-07 0)
(0.865671285716 -2.80053294228e-07 0)
(0.865671402602 -1.80775233129e-07 0)
(0.86567147282 -1.17020764369e-07 0)
(0.865671511813 -7.73224324858e-08 0)
(0.865671530876 -5.47028514199e-08 0)
(0.865671536869 -4.31664609025e-08 0)
(0.865671534416 -3.69531064554e-08 0)
(0.865671527569 -3.33570612494e-08 0)
(0.865671518948 -3.21883623491e-08 0)
(0.865671508848 -3.32161687597e-08 0)
(0.865671496996 -3.52600426585e-08 0)
(0.865671483957 -3.77798503454e-08 0)
(0.86567147111 -4.14023274402e-08 0)
(0.865671459279 -4.67832479501e-08 0)
(0.86567144673 -5.31471727371e-08 0)
(0.865671432181 -5.93293738806e-08 0)
(0.865671416607 -6.60073147246e-08 0)
(0.865671400072 -7.37425668099e-08 0)
(0.86567138168 -8.15324005272e-08 0)
(0.865671361728 -8.9138386645e-08 0)
(0.865671340704 -9.69227395406e-08 0)
(0.865671318207 -1.04122077666e-07 0)
(0.865671294874 -1.1100749802e-07 0)
(0.865671271359 -1.1894221229e-07 0)
(0.8656712463 -1.27176762845e-07 0)
(0.865671219041 -1.34897962042e-07 0)
(0.865671190485 -1.4349593864e-07 0)
(0.865671160681 -1.53128259032e-07 0)
(0.865671129328 -1.61824333331e-07 0)
(0.865671096906 -1.69630066386e-07 0)
(0.865671064317 -1.78263102759e-07 0)
(0.865671032168 -1.87864186897e-07 0)
(0.865670999125 -1.97733730276e-07 0)
(0.865670963457 -2.0805997398e-07 0)
(0.86567092669 -2.20124246017e-07 0)
(0.865670890371 -2.34273984555e-07 0)
(0.865670852311 -2.48091851328e-07 0)
(0.8656708124 -2.60437226996e-07 0)
(0.865670774061 -2.74705076351e-07 0)
(0.865670736293 -2.91865148715e-07 0)
(0.865670695864 -3.0809087292e-07 0)
(0.86567065451 -3.23625359604e-07 0)
(0.865670614554 -3.41995261675e-07 0)
(0.865670574911 -3.61956303209e-07 0)
(0.865670535379 -3.81360803854e-07 0)
(0.865670497377 -4.01575859969e-07 0)
(0.865670460507 -4.23708707407e-07 0)
(0.86567042348 -4.4786170401e-07 0)
(0.865670386677 -4.73905641494e-07 0)
(0.865670352386 -5.0130727494e-07 0)
(0.865670322629 -5.3132783241e-07 0)
(0.865670296041 -5.650980032e-07 0)
(0.865670272126 -6.021594084e-07 0)
(0.865670255391 -6.43770453939e-07 0)
(0.865670248653 -6.90633449214e-07 0)
(0.865670252403 -7.41429454836e-07 0)
(0.865670270621 -7.9760372868e-07 0)
(0.865670306486 -8.60262487625e-07 0)
(0.865670359947 -9.28140153181e-07 0)
(0.86567043464 -1.00242274352e-06 0)
(0.865670539697 -1.08784389277e-06 0)
(0.865670682316 -1.18683912872e-06 0)
(0.865670868082 -1.29925543527e-06 0)
(0.865671109439 -1.42940722786e-06 0)
(0.865671422063 -1.58373518958e-06 0)
(0.86567182066 -1.76754205515e-06 0)
(0.865672324075 -1.98802491695e-06 0)
(0.865672959441 -2.25747283193e-06 0)
(0.865673760905 -2.59475747541e-06 0)
(0.865674765016 -3.01215993037e-06 0)
(0.865676016617 -3.52186807728e-06 0)
(0.865677576305 -4.14509314163e-06 0)
(0.865679518099 -4.9082209245e-06 0)
(0.86568193087 -5.84365530055e-06 0)
(0.865684924318 -6.99273559645e-06 0)
(0.865688637508 -8.4063376536e-06 0)
(0.865693243243 -1.01474183976e-05 0)
(0.865698950081 -1.22922075005e-05 0)
(0.865706020563 -1.49377131885e-05 0)
(0.865714780306 -1.82057069959e-05 0)
(0.86572562754 -2.22454350891e-05 0)
(0.86573906183 -2.72466196706e-05 0)
(0.865755699643 -3.34472098604e-05 0)
(0.865776300404 -4.11339837248e-05 0)
(0.865801805236 -5.06565779144e-05 0)
(0.865833380558 -6.24442420307e-05 0)
(0.865872476883 -7.70369213077e-05 0)
(0.865920885065 -9.51030392461e-05 0)
(0.865980824112 -0.000117472339505 0)
(0.866055049224 -0.000145183289404 0)
(0.866146968408 -0.000179524677842 0)
(0.866260807329 -0.000222094472466 0)
(0.866401806627 -0.000274878966644 0)
(0.866576466859 -0.000340350414778 0)
(0.8667928573 -0.000421587639538 0)
(0.867060993091 -0.000522429937046 0)
(0.867393319337 -0.000647677150104 0)
(0.867805312495 -0.000803339426185 0)
(0.868316235662 -0.000996960338826 0)
(0.8689501022 -0.00123804578427 0)
(0.86973689517 -0.00153863113671 0)
(0.870714124321 -0.00191403125772 0)
(0.871928834666 -0.00238385604612 0)
(0.873440221368 -0.00297343418996 0)
(0.875323078253 -0.00371583181374 0)
(0.877672372716 -0.0046547710361 0)
(0.880609435908 -0.00584903554641 0)
(0.884290512457 -0.00737938258254 0)
(0.888918707369 -0.00935985807423 0)
(0.894760908802 -0.0119573122214 0)
(0.902171692295 -0.0154267453493 0)
(0.911625807266 -0.0201778995023 0)
(0.923757325281 -0.0269039532428 0)
(0.939383853201 -0.0368294450584 0)
(0.959429456152 -0.0521544071377 0)
(0.984576696142 -0.0767153342573 0)
(1.01419933496 -0.116621353791 0)
(1.04233193869 -0.179077768653 0)
(1.02388346166 0.119321982264 0)
(1.08875436375 0.231514423696 0)
(1.1366048336 0.252868940534 0)
(1.15406272876 0.228905047072 0)
(1.15000112199 0.188337386255 0)
(1.13537623254 0.146577291365 0)
(1.11757776883 0.110164819969 0)
(1.10059198616 0.0808376069954 0)
(1.08612240118 0.0582502020702 0)
(1.07458760834 0.0413417882782 0)
(1.06578678779 0.0289362865485 0)
(1.05928156009 0.0199770234123 0)
(1.05459132293 0.013594932654 0)
(1.05128026645 0.0091074287879 0)
(1.04898736129 0.005993133036 0)
(1.04742905271 0.00386144005385 0)
(1.04639045932 0.00242413457603 0)
(1.0457129905 0.00147134548949 0)
(1.0452820592 0.000852132370131 0)
(1.04501637776 0.000459259326033 0)
(1.04485925604 0.000217486282009 0)
(1.04477182812 7.47154659864e-05 0)
(1.04472784896 -4.64825488994e-06 0)
(1.04470998429 -4.44481456681e-05 0)
(1.04470705823 -6.05383682243e-05 0)
(1.04471198062 -6.30955470576e-05 0)
(1.04472042118 -5.85461795463e-05 0)
(1.04472986321 -5.08132163772e-05 0)
(1.04473893766 -4.21811503848e-05 0)
(1.04474698384 -3.38930986666e-05 0)
(1.04475376201 -2.65479682349e-05 0)
(1.04475926813 -2.03618757486e-05 0)
(1.0447636182 -1.53370066958e-05 0)
(1.04476697804 -1.13669389523e-05 0)
(1.04476952358 -8.30008172669e-06 0)
(1.04477141943 -5.97551715931e-06 0)
(1.04477280942 -4.24272632894e-06 0)
(1.04477381349 -2.97071855038e-06 0)
(1.04477452795 -2.05078917765e-06 0)
(1.04477502865 -1.39459706342e-06 0)
(1.04477537423 -9.32955949865e-07 0)
(1.04477560881 -6.12878858058e-07 0)
(1.04477576481 -3.94497231336e-07 0)
(1.04477586603 -2.48132936299e-07 0)
(1.044775929 -1.51214549726e-07 0)
(1.04477596538 -8.7429755996e-08 0)
(1.04477598432 -4.6313806929e-08 0)
(1.04477599198 -2.06203622097e-08 0)
(1.04477599157 -4.4860739331e-09 0)
(1.04477598515 5.70457152078e-09 0)
(1.0447759749 1.12433938255e-08 0)
(1.04477596269 1.3571655495e-08 0)
(1.04477594951 1.43773310272e-08 0)
(1.04477593532 1.50034383734e-08 0)
(1.04477592032 1.57347172661e-08 0)
(1.04477590529 1.56971138131e-08 0)
(1.04477588996 1.50184538166e-08 0)
(1.04477587319 1.47023214659e-08 0)
(1.04477585479 1.39667541005e-08 0)
(1.04477583554 1.23289419352e-08 0)
(1.04477581513 1.07231891461e-08 0)
(1.04477579329 9.82217768243e-09 0)
(1.04477577061 9.43549919874e-09 0)
(1.04477574669 9.84251252338e-09 0)
(1.04477572107 1.11835301903e-08 0)
(1.04477569441 1.23447177443e-08 0)
(1.04477566646 1.3044277573e-08 0)
(1.04477563636 1.4394546454e-08 0)
(1.04477560457 1.65167086459e-08 0)
(1.04477557205 1.90145920425e-08 0)
(1.04477553833 2.24595707638e-08 0)
(1.04477550235 2.6925840122e-08 0)
(1.04477546497 3.13190030133e-08 0)
(1.04477542784 3.47166750992e-08 0)
(1.04477539017 3.76137525529e-08 0)
(1.04477534976 4.16221333867e-08 0)
(1.04477530711 4.64766245808e-08 0)
(1.04477526474 4.99544763069e-08 0)
(1.04477522225 5.26526744785e-08 0)
(1.04477517746 5.72064093172e-08 0)
(1.04477513177 6.24351023393e-08 0)
(1.04477508734 6.59914765122e-08 0)
(1.04477504208 6.99795902787e-08 0)
(1.04477499406 7.56922670884e-08 0)
(1.04477494574 8.07382419225e-08 0)
(1.04477489896 8.51506088376e-08 0)
(1.04477485248 9.05387162464e-08 0)
(1.0447748063 9.58322007479e-08 0)
(1.04477476071 1.00034241332e-07 0)
(1.04477471498 1.03701683867e-07 0)
(1.04477467001 1.07263187952e-07 0)
(1.04477462711 1.10696201265e-07 0)
(1.04477458695 1.11936040416e-07 0)
(1.04477454979 1.09614764847e-07 0)
(1.04477451582 1.0540931323e-07 0)
(1.04477448812 9.85419272623e-08 0)
(1.04477446994 8.62434067172e-08 0)
(1.04477446123 6.80752731119e-08 0)
(1.04477446356 4.19185508047e-08 0)
(1.04477448247 2.88841699719e-09 0)
(1.0447745221 -4.96635481087e-08 0)
(1.04477458464 -1.15024445799e-07 0)
(1.04477467771 -1.98608607619e-07 0)
(1.04477481111 -3.06420340653e-07 0)
(1.04477499119 -4.40758951926e-07 0)
(1.04477522886 -6.06590692286e-07 0)
(1.04477554026 -8.13405411003e-07 0)
(1.04477594196 -1.07152325887e-06 0)
(1.04477645413 -1.39074519922e-06 0)
(1.044777104 -1.78252665074e-06 0)
(1.04477792621 -2.26542283678e-06 0)
(1.04477895889 -2.862412612e-06 0)
(1.04478024792 -3.59818878832e-06 0)
(1.0447818558 -4.50503896186e-06 0)
(1.0447838603 -5.62430057952e-06 0)
(1.04478635397 -7.00535184946e-06 0)
(1.04478945034 -8.70859392215e-06 0)
(1.04479329372 -1.08105007866e-05 0)
(1.0447980642 -1.34065063244e-05 0)
(1.04480397898 -1.66103662043e-05 0)
(1.04481130965 -2.05649977667e-05 0)
(1.04482039492 -2.54515901663e-05 0)
(1.04483164919 -3.14906284987e-05 0)
(1.04484558898 -3.8958972962e-05 0)
(1.04486285276 -4.82035621657e-05 0)
(1.04488423 -5.96507792713e-05 0)
(1.04491069913 -7.38234835997e-05 0)
(1.04494346791 -9.13657735782e-05 0)
(1.04498403852 -0.000113082153029 0)
(1.04503427117 -0.00013996754532 0)
(1.04509646628 -0.000173250851123 0)
(1.04517347621 -0.000214463107954 0)
(1.04526883245 -0.000265506413386 0)
(1.04538691323 -0.000328740359298 0)
(1.04553314293 -0.000407095555378 0)
(1.04571424547 -0.000504216603218 0)
(1.04593856231 -0.000624640834136 0)
(1.04621643493 -0.000774023116493 0)
(1.04656069813 -0.000959425096799 0)
(1.04698729047 -0.00118967772599 0)
(1.0475160123 -0.00147585244319 0)
(1.04817148566 -0.00183187717715 0)
(1.04898435756 -0.00227533802051 0)
(1.04999282433 -0.00282854520971 0)
(1.05124456369 -0.00351996851934 0)
(1.05279918756 -0.00438619652481 0)