/*--------------------------------*- C++ -*----------------------------------*\
| =========                 |                                                 |
| \\      /  F ield         | OpenFOAM: The Open Source CFD Toolbox           |
|  \\    /   O peration     | Version:  2106                                  |
|   \\  /    A nd           | Website:  www.openfoam.com                      |
|    \\/     M anipulation  |                                                 |
\*---------------------------------------------------------------------------*/
FoamFile
{
    version     2.0;
    format      ascii;
    arch        "LSB;label=32;scalar=64";
    class       volScalarField;
    location    "0.001";
    object      p;
}
// * * * * * * * * * * * * * * * * * * * * * * * * * * * * * * * * * * * * * //

dimensions      [0 2 -2 0 0 0 0];

internalField   nonuniform List<scalar> 
800
(
-3.83249e-17
-7.3701e-32
-7.00147e-18
-6.279e-17
-4.04938e-17
-4.5456e-17
-1.05361e-16
-7.51698e-17
-3.06494e-18
1.9365e-18
-3.37094e-17
-4.09973e-17
-3.87722e-17
-3.77356e-17
-3.68442e-17
-3.36884e-17
-3.64431e-17
-7.27646e-17
-1.1244e-16
-1.14796e-16
-7.02032e-17
-4.80903e-19
5.5529e-18
-3.29491e-17
-7.54391e-17
-1.1061e-16
-1.16645e-16
-1.01037e-16
-3.73252e-17
-4.28772e-17
-9.87412e-17
-4.31323e-17
-3.20254e-18
-3.04962e-17
-3.97439e-17
-3.86078e-17
-3.83755e-17
-4.04735e-17
-3.54733e-17
-5.16362e-18
1.02457e-18
-4.11751e-20
-8.43556e-18
-3.25001e-17
-5.00507e-18
-2.64832e-18
-3.5064e-17
-4.44085e-17
-3.92773e-17
-2.75894e-18
3.26934e-17
3.55765e-17
3.22806e-17
3.12439e-17
3.24438e-17
3.57355e-17
3.15422e-17
-6.32453e-18
-3.47414e-17
-2.14215e-18
-1.8706e-18
-6.87315e-17
-1.11553e-16
-1.15756e-16
-1.07491e-16
-6.77209e-17
-3.64136e-17
-7.32093e-17
-1.11043e-16
-7.34638e-17
-2.42492e-18
2.54668e-18
-2.97957e-17
-3.96977e-17
-7.47297e-17
-1.1543e-16
-1.11528e-16
-3.4437e-17
3.43505e-17
4.63692e-18
-3.72757e-17
-4.1036e-17
-3.52009e-17
-4.00394e-17
-7.36754e-17
-7.7132e-17
-4.0753e-17
4.13755e-18
3.44072e-17
-1.88583e-19
-4.1119e-17
-3.89288e-17
-2.26133e-18
1.90634e-18
-3.35661e-17
-7.5043e-17
-1.0916e-16
-1.15294e-16
-1.11427e-16
-6.91135e-17
-1.30898e-18
2.59244e-18
-3.17792e-17
-4.62407e-17
-6.90052e-17
-4.25636e-17
-3.41426e-17
-3.52279e-17
-4.59611e-17
-6.61739e-17
-9.85941e-18
6.96115e-18
2.87615e-18
-4.06576e-17
-1.09549e-16
-1.14539e-16
-7.37042e-17
-3.63809e-17
-3.36137e-17
-3.70973e-17
-3.79249e-17
-3.65323e-17
-3.52055e-17
-4.46497e-17
-7.31937e-17
-3.45787e-17
3.03206e-17
3.88122e-18
-3.71052e-17
-4.10562e-17
-3.44274e-17
-3.71938e-17
-7.59295e-17
-1.08529e-16
-7.60888e-17
-3.74711e-17
-3.35483e-17
-3.68437e-17
-3.78667e-17
-3.7731e-17
-3.77431e-17
-3.78748e-17
-3.67229e-17
-3.32626e-17
-3.8112e-17
-7.9978e-17
-1.09448e-16
-4.04424e-17
3.58284e-17
3.63538e-17
-2.71103e-18
-2.55903e-18
3.5618e-17
3.17969e-17
-4.06907e-17
-7.1253e-17
-8.43229e-18
4.1218e-18
-3.25023e-17
-7.50876e-17
-1.09286e-16
-1.15187e-16
-1.11107e-16
-6.9748e-17
-5.43699e-18
1.21426e-18
5.1557e-18
3.37893e-17
6.33594e-19
-7.32266e-17
-1.1362e-16
-1.05861e-16
-7.85314e-17
-1.08391e-16
-1.07934e-16
-3.90815e-17
7.01022e-18
-3.4513e-18
-7.04869e-17
-7.66124e-17
-4.06333e-17
-3.10298e-17
-3.92744e-17
-7.37136e-17
-7.69194e-17
-4.25866e-17
-2.49739e-18
3.99367e-17
7.334e-17
3.92067e-17
-4.07581e-17
-1.12537e-16
-1.1323e-16
-7.77307e-17
-6.34006e-17
-4.17819e-17
-7.01546e-17
-7.237e-17
-4.17218e-17
-3.66361e-17
-3.14486e-17
-8.41932e-18
-3.47126e-17
-3.47465e-17
-8.56643e-18
-3.14828e-17
-3.53351e-17
-3.90384e-17
-7.99336e-17
-1.09481e-16
-4.07313e-17
3.65933e-17
4.06628e-17
-2.28667e-18
-4.29815e-17
-4.16174e-17
5.34714e-19
3.27582e-17
-3.33765e-18
-3.7268e-17
5.68633e-19
3.35747e-17
-3.29888e-17
-1.09017e-16
-1.22375e-16
-1.10051e-16
-3.73217e-17
3.42143e-17
4.31087e-17
3.37847e-17
-3.46549e-18
-3.84729e-17
-4.10838e-17
-3.89631e-17
-4.13778e-17
-3.76286e-17
8.69473e-19
3.34229e-17
1.01831e-18
-3.8523e-17
-4.45061e-17
-3.5978e-17
-5.76816e-18
-3.05454e-18
8.69085e-19
3.34717e-17
3.46582e-17
-6.30601e-18
-3.88174e-17
-1.98351e-18
3.61274e-17
-2.49235e-18
-7.71064e-17
-7.83045e-17
-5.02191e-18
4.29155e-17
3.32941e-17
-4.00042e-17
-6.77938e-17
-1.26826e-17
-3.90947e-17
-7.02002e-17
-7.83398e-18
4.24622e-17
3.8705e-17
-3.83775e-17
-1.16745e-16
-1.15575e-16
-3.50848e-17
3.45515e-17
4.73601e-18
-3.63348e-17
-3.90954e-17
-4.07314e-17
-6.87238e-17
-7.27985e-17
-7.90919e-17
-1.0528e-16
-7.48796e-17
-3.82629e-17
-3.75638e-17
-3.77869e-17
-2.39118e-18
3.54122e-17
3.34729e-17
1.30056e-19
-6.951e-18
-6.9225e-18
-8.0135e-19
3.03368e-17
3.85395e-17
3.33334e-17
-2.95134e-18
-3.81919e-17
-4.19968e-17
-4.21196e-17
-3.85133e-17
-2.44161e-18
3.71986e-17
4.06527e-17
-2.74801e-18
-8.08816e-17
-1.1343e-16
-4.25573e-17
3.42478e-17
4.72811e-17
3.47017e-17
-3.80529e-17
-1.08506e-16
-1.15169e-16
-1.12009e-16
-1.07207e-16
-7.20741e-17
-3.6852e-17
-3.37318e-17
-3.66943e-17
-3.85096e-17
-4.14969e-17
-3.83643e-17
-2.89379e-18
3.25616e-17
3.55759e-17
3.24149e-17
3.13904e-17
3.15239e-17
3.26999e-17
3.48289e-17
2.86188e-17
-2.87341e-18
-6.74818e-19
2.65397e-17
2.20835e-18
-5.15384e-18
-1.89053e-18
2.3809e-18
-1.21025e-17
-6.98946e-17
-3.53659e-17
2.32637e-17
-2.83094e-17
-3.57903e-17
-7.40265e-18
-3.75939e-17
-6.7686e-17
-3.92575e-17
-4.78056e-17
-1.01623e-16
-3.68284e-17
3.03011e-17
-2.73642e-17
-7.54703e-17
-8.06777e-17
-7.00471e-17
-3.52591e-17
-3.42971e-17
-7.62288e-17
-1.10767e-16
-7.09471e-17
-8.30253e-18
-3.0805e-17
-3.29643e-17
-4.34571e-18
-3.31643e-17
-8.12472e-17
-1.07392e-16
-4.26609e-17
3.3398e-18
-1.06828e-18
-3.67088e-17
-3.66579e-17
-1.24599e-17
-3.14663e-17
1.82676e-18
2.93232e-17
-3.35171e-17
-7.08818e-17
-5.07935e-17
-6.77782e-17
-3.636e-17
-4.14902e-18
-2.94937e-17
-4.5051e-17
-6.81377e-17
-4.05898e-17
-4.05915e-17
-6.81467e-17
-4.48493e-17
-2.93979e-17
-3.84886e-18
-3.59194e-17
-6.79713e-17
-5.19988e-17
-7.3951e-17
-2.68629e-17
6.61767e-17
-3.42952e-19
-1.08362e-16
-8.21343e-17
3.72321e-18
3.75148e-17
-4.06207e-17
-1.05477e-16
-4.12814e-17
-3.21435e-18
-6.82321e-17
-1.11817e-16
-8.00265e-17
-3.30605e-17
4.98626e-18
-3.2541e-18
-6.76049e-17
-7.95803e-17
-7.68328e-17
-7.07653e-17
-4.32857e-17
-3.43367e-17
8.81967e-19
2.91326e-17
1.62997e-18
4.14906e-18
2.53021e-17
-3.97901e-17
-7.22747e-17
-1.7812e-18
3.60753e-17
-3.83702e-17
-1.14194e-16
-7.13553e-17
3.05332e-17
6.40269e-18
-6.6821e-17
-8.85245e-17
-1.04968e-16
-4.3157e-17
-2.77769e-18
3.78281e-18
3.07502e-17
3.80274e-17
3.31965e-17
-1.85997e-18
-3.60819e-17
-4.84554e-17
-7.38203e-17
-3.42028e-17
3.0601e-17
3.23261e-18
-3.98308e-17
-3.9839e-17
-6.31804e-18
2.04779e-18
4.17258e-18
-8.18599e-18
-7.09404e-17
-7.69797e-17
-4.34678e-17
-2.9201e-17
-7.55536e-18
-3.3868e-17
-3.0373e-17
-8.78732e-18
-7.48372e-17
-1.11935e-16
-4.10683e-17
4.0407e-17
4.16513e-17
-3.66695e-17
-1.1367e-16
-1.18561e-16
-7.1339e-17
-3.65862e-18
4.25258e-18
-2.28165e-18
-6.32349e-18
-9.22934e-19
2.93169e-17
3.42416e-17
3.40913e-17
3.96226e-17
3.1798e-17
-4.43894e-17
-1.07306e-16
-4.75552e-17
1.44472e-18
7.40829e-18
-1.06918e-17
-6.8278e-17
-3.95224e-17
-3.42401e-18
-3.83002e-17
-7.63833e-17
-3.79023e-17
3.64842e-17
3.6713e-17
-3.65373e-17
-7.50347e-17
-4.85668e-17
-3.49421e-17
1.43932e-18
2.93888e-17
-1.89244e-19
-2.14624e-18
3.1682e-17
3.1803e-17
-3.01801e-18
-4.25613e-18
3.03356e-17
4.21373e-17
2.97235e-17
-4.2699e-17
-7.43949e-17
-5.30157e-18
3.98567e-17
3.38218e-18
-7.37116e-17
-1.19486e-16
-1.13317e-16
-3.85008e-17
3.49815e-17
4.70116e-17
3.48228e-17
-3.77075e-17
-1.10302e-16
-1.21707e-16
-1.06559e-16
-3.48694e-17
6.81167e-18
-2.99055e-17
-1.14364e-16
-1.81993e-16
-1.42892e-16
-7.57147e-17
-1.05612e-16
-1.36235e-16
-8.08132e-17
-6.82599e-17
-7.36144e-17
-6.83889e-17
-3.47077e-17
-4.28636e-17
-1.02625e-16
-7.84526e-17
-3.75961e-17
-3.1421e-17
-4.19728e-17
-6.72873e-17
-4.09045e-17
-3.98285e-17
-6.40261e-17
-4.5101e-17
-6.70615e-17
-7.21483e-17
-7.82249e-17
-1.02357e-16
-7.80672e-17
-7.27901e-17
-6.97649e-17
-4.37739e-17
-3.57795e-17
-1.37155e-18
3.64567e-17
3.55876e-17
-6.05546e-18
-3.94023e-17
-6.78762e-18
3.19369e-17
3.57447e-17
3.22472e-17
3.20083e-17
3.53968e-17
3.37596e-17
-3.79802e-19
-4.52706e-17
-7.78769e-17
-3.83795e-17
3.34813e-17
3.94623e-17
-4.7127e-19
-3.59234e-17
-4.49472e-17
-7.18767e-17
-6.64689e-17
-4.65094e-17
-1.05503e-16
-1.07786e-16
-4.30129e-17
-2.85869e-17
-3.79255e-17
-6.90342e-17
-7.3786e-17
-8.28616e-17
-1.06374e-16
-4.10381e-17
3.38045e-17
4.72918e-17
3.51359e-17
-3.96998e-17
-1.1568e-16
-1.12194e-16
-3.80494e-17
-1.74661e-18
-3.25186e-17
-3.47327e-17
-1.05347e-17
-3.78455e-17
-3.0547e-17
3.02122e-17
-7.35027e-20
-7.12182e-17
-7.39862e-17
-4.4517e-17
-6.99032e-17
-7.22022e-17
-3.87881e-17
-2.92111e-17
-4.58542e-17
-1.05784e-16
-7.34714e-17
-7.52603e-18
-2.44188e-17
-3.79926e-17
-7.41898e-17
-1.10577e-16
-1.0919e-16
-7.89217e-17
-6.88349e-17
-3.46228e-17
-7.91798e-18
-2.91684e-17
-2.8237e-18
4.011e-18
-3.7416e-17
-1.14677e-16
-1.45161e-16
-7.83167e-17
-3.0441e-17
-3.17273e-17
-7.13291e-17
-1.08762e-16
-1.15615e-16
-1.10462e-16
-6.68883e-17
-7.55315e-18
-2.98991e-17
-3.0838e-17
-1.17146e-17
-6.81062e-17
-7.40994e-17
-3.80958e-17
-3.80634e-17
-7.60734e-17
-7.44169e-17
-4.49856e-18
4.27211e-17
3.44112e-17
-3.86694e-17
-7.72105e-17
-4.24376e-17
-2.88802e-18
2.03683e-18
2.03289e-18
-2.89717e-18
-4.24178e-17
-7.70911e-17
-3.86436e-17
3.33172e-17
4.04944e-17
1.91982e-18
-4.15264e-17
-7.78357e-17
-7.78743e-17
-4.07317e-17
4.76637e-18
3.81254e-17
1.74159e-18
-7.32065e-17
-1.15601e-16
-1.12147e-16
-7.23648e-17
-3.71821e-17
-3.77768e-17
-3.71273e-17
7.01563e-19
3.34925e-17
2.35381e-19
-4.16244e-17
-4.25753e-17
-2.74072e-18
3.59753e-17
3.25754e-17
-3.20883e-18
-3.18113e-18
3.16454e-17
3.28528e-17
3.97499e-19
-6.96164e-18
-7.09427e-18
1.13811e-19
3.35933e-17
3.55655e-17
-3.18105e-18
-4.06443e-17
-3.51966e-17
-6.69013e-18
-4.03332e-17
-6.67704e-17
-9.20412e-18
-3.04783e-18
-3.05184e-17
-5.45242e-18
-3.42483e-18
-3.35705e-17
-3.65355e-17
-3.95748e-17
-7.83229e-17
-1.01211e-16
-4.01738e-17
-4.12347e-17
-1.05642e-16
-7.88852e-17
4.28314e-19
4.12925e-17
2.91695e-18
-7.30496e-17
-1.16368e-16
-1.16067e-16
-7.33895e-17
-1.72408e-18
3.63141e-17
3.59004e-17
3.29005e-17
3.54487e-17
3.16786e-17
-6.92995e-18
-3.83491e-17
-2.74661e-18
3.16477e-17
-2.26299e-18
-3.38479e-17
-2.28005e-18
-3.06675e-18
-7.2022e-17
-1.07345e-16
-7.66911e-17
-7.68335e-17
-1.07792e-16
-7.16538e-17
1.71322e-18
2.84615e-18
-7.02117e-17
-1.17061e-16
-1.06393e-16
-4.13708e-17
-3.86434e-17
-6.01157e-17
-1.09581e-17
-3.50425e-17
-6.53479e-17
-4.28833e-17
-6.97819e-17
-1.07196e-16
-1.15359e-16
-1.11365e-16
-6.96751e-17
-5.14305e-18
7.25318e-19
1.64004e-18
3.21597e-17
3.12564e-17
-2.22943e-18
-4.44718e-20
2.93023e-17
7.78877e-20
-3.64276e-17
-3.82411e-17
-4.21649e-17
-7.56639e-17
-7.05452e-17
-8.90765e-18
1.05639e-19
6.05181e-19
2.96276e-17
3.90661e-17
3.72604e-17
-3.19109e-18
-7.61818e-17
-1.08254e-16
-7.6701e-17
-7.59555e-17
-1.03595e-16
-7.1151e-17
-3.74844e-17
-7.30609e-17
-1.10797e-16
-7.31703e-17
-2.93166e-18
-1.06123e-18
-3.16056e-17
-8.54819e-18
-1.0428e-18
-2.00996e-18
)
;

boundaryField
{
    left
    {
        type            zeroGradient;
    }
    right
    {
        type            zeroGradient;
    }
    empty
    {
        type            empty;
    }
}


// ************************************************************************* //
