/*--------------------------------*- C++ -*----------------------------------*\
| =========                 |                                                 |
| \\      /  F ield         | OpenFOAM: The Open Source CFD Toolbox           |
|  \\    /   O peration     | Version:  2106                                  |
|   \\  /    A nd           | Website:  www.openfoam.com                      |
|    \\/     M anipulation  |                                                 |
\*---------------------------------------------------------------------------*/
FoamFile
{
    version     2.0;
    format      ascii;
    arch        "LSB;label=32;scalar=64";
    class       volVectorField;
    location    "0.345";
    object      U;
}
// * * * * * * * * * * * * * * * * * * * * * * * * * * * * * * * * * * * * * //

dimensions      [0 1 -1 0 0 0 0];

internalField   nonuniform List<vector> 
11200
(
(0.662462407284 0.150569440541 0)
(0.558948689564 0.103243387091 0)
(0.383850770508 0.051351223243 0)
(0.283747643897 0.0248708543552 0)
(0.232075333739 0.0124170443363 0)
(0.201908664891 0.0066228159227 0)
(0.183198024921 0.00380291347414 0)
(0.1712765934 0.00231586909719 0)
(0.163510422984 0.00146450555685 0)
(0.158388897232 0.000944891400391 0)
(0.155006768719 0.000615175854977 0)
(0.152786823259 0.000402232720947 0)
(0.151346682156 0.000264231086575 0)
(0.150428453808 0.000175248979097 0)
(0.14985685801 0.000118359452003 0)
(0.149512664996 8.21586785197e-05 0)
(0.149315112588 5.88644661337e-05 0)
(0.149209758491 4.33140566931e-05 0)
(0.149159906216 3.29327614205e-05 0)
(0.149142672315 2.81846254623e-05 0)
(0.149144832776 2.76826820193e-05 0)
(0.1491571115 2.98886014854e-05 0)
(0.149172734565 3.30491125258e-05 0)
(0.149188282221 3.59648177865e-05 0)
(0.149202490067 3.86004352149e-05 0)
(0.149214758239 4.10396221912e-05 0)
(0.149224919153 4.33170097871e-05 0)
(0.149233079769 4.54637205589e-05 0)
(0.149239476884 4.75190321288e-05 0)
(0.149244392672 4.9529986351e-05 0)
(0.149248112336 5.15585438485e-05 0)
(0.149250903278 5.36957087688e-05 0)
(0.149252962526 5.60242701144e-05 0)
(0.149254460111 5.84058197614e-05 0)
(0.149255528845 6.07670673298e-05 0)
(0.149256255301 6.30883890622e-05 0)
(0.149256735655 6.53798105927e-05 0)
(0.149257053397 6.76546290633e-05 0)
(0.149257262257 6.99242529366e-05 0)
(0.149257391126 7.21948305301e-05 0)
(0.149257460973 7.44674880913e-05 0)
(0.149257489125 7.67431553421e-05 0)
(0.149257487734 7.90215319984e-05 0)
(0.149257465671 8.13015001325e-05 0)
(0.149257429349 8.35813577979e-05 0)
(0.149257383579 8.58587391773e-05 0)
(0.149257332498 8.81308372111e-05 0)
(0.149257280315 9.0394622661e-05 0)
(0.149257231782 9.26469278327e-05 0)
(0.149257192191 9.48847742329e-05 0)
(0.149257168457 9.71050628329e-05 0)
(0.14925717041 9.93048673589e-05 0)
(0.149257211324 0.000101481223173 0)
(0.149257309496 0.000103630732491 0)
(0.149257490657 0.000105749004253 0)
(0.149257790981 0.000107830400402 0)
(0.149258261489 0.000109867792492 0)
(0.149258977465 0.00011185136865 0)
(0.149260048648 0.00011376859728 0)
(0.149261633167 0.000115594252604 0)
(0.149263978545 0.000117272540863 0)
(0.149267492803 0.000118720256012 0)
(0.1492726434 0.000119977799296 0)
(0.149280078414 0.000121238302834 0)
(0.149290830813 0.000122965242971 0)
(0.149306422072 0.000125338706473 0)
(0.14932923889 0.000128118973324 0)
(0.149362975889 0.000131080007218 0)
(0.149413226014 0.000134006468591 0)
(0.149488218639 0.000136785059683 0)
(0.149599889884 0.000140693217679 0)
(0.14977107443 0.000151554574042 0)
(0.150039536817 0.00017227959615 0)
(0.150468430662 0.000202530235707 0)
(0.151193552225 0.000232456063581 0)
(0.152492540528 0.000191655342418 0)
(0.155021536839 -0.000216774188723 0)
(0.162374838271 -0.00211008226755 0)
(0.187703062096 -0.0107884549584 0)
(0.204359955147 -0.0496591321325 0)
(0.965408258763 0.28921470388 0)
(0.961962876707 0.252656038101 0)
(0.82357442399 0.159021440246 0)
(0.698139413858 0.0959957300018 0)
(0.610225520697 0.0582481130195 0)
(0.548971559267 0.0362148520864 0)
(0.506588965806 0.0231612839722 0)
(0.477567353922 0.0151375141178 0)
(0.457745583697 0.0100177539095 0)
(0.444228558953 0.00665813989511 0)
(0.435053402686 0.0044155549526 0)
(0.428873227947 0.00290686444506 0)
(0.424754317182 0.0018910569047 0)
(0.422046772677 0.00121004371019 0)
(0.420297941029 0.00075716166211 0)
(0.419193337486 0.000459253962773 0)
(0.418515737946 0.0002658527156 0)
(0.41811659677 0.000142397311009 0)
(0.417895999201 6.61069557094e-05 0)
(0.417786953872 2.30897726837e-05 0)
(0.41774554482 1.40512537504e-06 0)
(0.41774227296 -1.01658248066e-05 0)
(0.417756875895 -1.37173322501e-05 0)
(0.41777883968 -1.32708215762e-05 0)
(0.417803138984 -1.08386335142e-05 0)
(0.417826514498 -7.4956045812e-06 0)
(0.417847272922 -3.87930097199e-06 0)
(0.417864815634 -3.59812013376e-07 0)
(0.417879146592 2.86145779707e-06 0)
(0.417890581308 5.6806803919e-06 0)
(0.417899591854 8.03350837591e-06 0)
(0.417906671785 9.83547972284e-06 0)
(0.41791202304 1.1004344175e-05 0)
(0.417915879139 1.18575009699e-05 0)
(0.417918618024 1.26793162673e-05 0)
(0.41792051449 1.34363533335e-05 0)
(0.417921810489 1.41104012673e-05 0)
(0.41792269733 1.47258014569e-05 0)
(0.417923300941 1.53113829711e-05 0)
(0.417923692812 1.58807622576e-05 0)
(0.417923925638 1.64343050683e-05 0)
(0.417924042889 1.697711538e-05 0)
(0.41792407536 1.75128880321e-05 0)
(0.417924045689 1.80449376402e-05 0)
(0.417923970275 1.85764245387e-05 0)
(0.417923861457 1.91096550064e-05 0)
(0.417923729789 1.96465154765e-05 0)
(0.417923585857 2.01888607234e-05 0)
(0.417923441657 2.07387414655e-05 0)
(0.417923310861 2.12982946441e-05 0)
(0.417923211395 2.18676097641e-05 0)
(0.417923168325 2.24469017219e-05 0)
(0.417923215542 2.3036202563e-05 0)
(0.417923399518 2.36351784031e-05 0)
(0.417923785551 2.42430074473e-05 0)
(0.417924466278 2.48589104158e-05 0)
(0.417925573259 2.54802493659e-05 0)
(0.417927300517 2.60948425956e-05 0)
(0.417929925975 2.66861542899e-05 0)
(0.417933838983 2.72229577594e-05 0)
(0.417939643645 2.76552057645e-05 0)
(0.417948438263 2.79343413371e-05 0)
(0.417961708804 2.82207540945e-05 0)
(0.417981594854 2.77643475489e-05 0)
(0.418010859688 2.51535143075e-05 0)
(0.418053110596 1.93227322135e-05 0)
(0.41811453898 9.46510570789e-06 0)
(0.418205261935 -5.95219830002e-06 0)
(0.418340879331 -2.94531408816e-05 0)
(0.418546282612 -6.47179313115e-05 0)
(0.418863362087 -0.000115937528187 0)
(0.419361708766 -0.000188081588507 0)
(0.42015478178 -0.000307851978677 0)
(0.421446224431 -0.00053281413415 0)
(0.423627660761 -0.000999786028885 0)
(0.427417747337 -0.00209045442668 0)
(0.434238576814 -0.00485634863624 0)
(0.448265020439 -0.0122539628738 0)
(0.474644150711 -0.0342418186828 0)
(0.478166473569 -0.0987704763776 0)
(1.02222096999 0.238416185851 0)
(1.08213754726 0.295926651578 0)
(1.03447725909 0.239503065688 0)
(0.954615455113 0.174290163842 0)
(0.879992113938 0.121345467798 0)
(0.818614505263 0.0830993835048 0)
(0.771410930753 0.056731666449 0)
(0.736634480656 0.0387409677916 0)
(0.71162453188 0.0264327861925 0)
(0.693916729054 0.0179731037856 0)
(0.681541528041 0.0121424469493 0)
(0.67300024408 0.00812490713104 0)
(0.667180787242 0.00536631993661 0)
(0.663271825245 0.00348444364765 0)
(0.660688661721 0.00221256042603 0)
(0.65901434478 0.00136338076632 0)
(0.657954670827 0.000805242811935 0)
(0.657304384448 0.00044591568315 0)
(0.656921972148 0.000221067417298 0)
(0.656710412361 8.55797143092e-05 0)
(0.65660355293 8.3562391022e-06 0)
(0.656562008343 -3.37219033305e-05 0)
(0.656558111718 -5.68567914745e-05 0)
(0.656571590327 -6.68761771093e-05 0)
(0.65659312231 -6.84839037181e-05 0)
(0.656616944181 -6.5562796903e-05 0)
(0.656639748721 -6.05521498337e-05 0)
(0.656659929204 -5.48626244947e-05 0)
(0.656676900541 -4.92786579736e-05 0)
(0.656690640729 -4.42071078424e-05 0)
(0.656701396374 -3.98428394995e-05 0)
(0.656709551678 -3.63044487638e-05 0)
(0.656715803058 -3.36979598756e-05 0)
(0.656720839678 -3.18596584081e-05 0)
(0.656724705244 -3.08125387618e-05 0)
(0.656727415774 -3.0305386171e-05 0)
(0.656729281707 -3.0249387909e-05 0)
(0.656730582475 -3.05601058339e-05 0)
(0.656731485484 -3.10876381257e-05 0)
(0.656732080455 -3.17494077905e-05 0)
(0.656732441685 -3.25159978951e-05 0)
(0.656732634648 -3.33522792991e-05 0)
(0.656732704566 -3.42336725099e-05 0)
(0.656732685641 -3.51410327542e-05 0)
(0.656732602722 -3.60589155918e-05 0)
(0.65673247444 -3.69765796306e-05 0)
(0.656732317028 -3.78864417439e-05 0)
(0.6567321465 -3.8782891196e-05 0)
(0.656731980457 -3.96613804389e-05 0)
(0.656731837143 -4.05163511223e-05 0)
(0.656731740943 -4.13444549852e-05 0)
(0.656731727771 -4.21415767775e-05 0)
(0.656731846764 -4.29059651205e-05 0)
(0.656732166303 -4.36409285016e-05 0)
(0.656732783504 -4.43601183366e-05 0)
(0.656733835161 -4.50944373202e-05 0)
(0.656735509458 -4.58992006734e-05 0)
(0.656738085026 -4.68693254604e-05 0)
(0.656741971079 -4.81304694614e-05 0)
(0.656747764216 -4.99020165321e-05 0)
(0.656756399345 -5.26956881866e-05 0)
(0.656769525844 -5.75105958262e-05 0)
(0.656788455151 -6.51541228538e-05 0)
(0.656814630112 -7.64881935203e-05 0)
(0.656851901289 -9.32089916304e-05 0)
(0.656906978084 -0.000117710938327 0)
(0.656989236199 -0.000153196720469 0)
(0.657112466518 -0.000204953362537 0)
(0.657298484383 -0.000281500488247 0)
(0.657582681878 -0.00039671254479 0)
(0.658023185013 -0.00057493805286 0)
(0.658709184082 -0.00086344025598 0)
(0.659787726234 -0.00135228943584 0)
(0.661516339674 -0.00221459638299 0)
(0.664337170256 -0.00381288921233 0)
(0.668945944887 -0.00694594010262 0)
(0.676368507771 -0.0133523499345 0)
(0.688612645688 -0.0268431318476 0)
(0.705237289015 -0.0563189383218 0)
(0.700489673444 -0.113083075783 0)
(1.02251475914 0.170807151972 0)
(1.10138977467 0.276496477959 0)
(1.11752429345 0.266664798883 0)
(1.09214665078 0.219901698707 0)
(1.0518782132 0.168168847263 0)
(1.01020829211 0.123567396164 0)
(0.97349476772 0.0888375208773 0)
(0.943864641053 0.0630063707322 0)
(0.921142891939 0.0442232031766 0)
(0.904284171859 0.0307423917509 0)
(0.892074974507 0.0211562930946 0)
(0.88340462293 0.0143954675315 0)
(0.877352789608 0.00966794730817 0)
(0.873197833524 0.0063938364277 0)
(0.870393063657 0.00415116416493 0)
(0.868534181737 0.00263449026657 0)
(0.867327791467 0.00162401665517 0)
(0.866564394534 0.000962675160474 0)
(0.866096642988 0.000539121351037 0)
(0.865822406207 0.000275152149512 0)
(0.865671567341 0.000117066582929 0)
(0.865595321234 2.8790554349e-05 0)
(0.865564267401 -1.93268728051e-05 0)
(0.865561463087 -4.12636017039e-05 0)
(0.865572810347 -4.76681008966e-05 0)
(0.865589819841 -4.55278606698e-05 0)
(0.86560813269 -3.91586743869e-05 0)
(0.865625475061 -3.11480022823e-05 0)
(0.865640763279 -2.29669430797e-05 0)
(0.865653630446 -1.53831222215e-05 0)
(0.865664108224 -8.72520101499e-06 0)
(0.865672400235 -3.0459549149e-06 0)
(0.865678758224 1.73332896797e-06 0)
(0.86568339112 5.46434196027e-06 0)
(0.86568671603 8.03250186104e-06 0)
(0.865689119304 9.79011814745e-06 0)
(0.865690755911 1.11436843601e-05 0)
(0.865691921634 1.22884383261e-05 0)
(0.86569279261 1.32568247793e-05 0)
(0.865693387067 1.41429355619e-05 0)
(0.865693753021 1.49376439366e-05 0)
(0.865693955153 1.56635322177e-05 0)
(0.865694032326 1.63363575951e-05 0)
(0.865694016201 1.69724567755e-05 0)
(0.865693929333 1.75864585901e-05 0)
(0.865693788122 1.8188652647e-05 0)
(0.8656936079 1.87864852319e-05 0)
(0.865693405191 1.93861557017e-05 0)
(0.865693200915 1.99955271623e-05 0)
(0.865693018123 2.06240680252e-05 0)
(0.86569288713 2.1257099431e-05 0)
(0.865692849962 2.18818327272e-05 0)
(0.865692960171 2.24815937762e-05 0)
(0.86569328789 2.30303041491e-05 0)
(0.86569392729 2.34919490505e-05 0)
(0.865695010422 2.38314626177e-05 0)
(0.865696721876 2.4007776186e-05 0)
(0.865699353136 2.39025202121e-05 0)
(0.865703309089 2.33694522939e-05 0)
(0.865709006285 2.19952726985e-05 0)
(0.865716916449 1.92136739171e-05 0)
(0.865728657416 1.43181639505e-05 0)
(0.865746817068 5.48286755231e-06 0)
(0.865774365833 -8.88113711216e-06 0)
(0.865815172508 -3.07730460782e-05 0)
(0.865875158585 -6.41518102567e-05 0)
(0.865963662002 -0.000115891028855 0)
(0.866095193642 -0.000196749756486 0)
(0.86629229967 -0.000323984681738 0)
(0.866589793645 -0.000526066120106 0)
(0.867041270532 -0.00085193389066 0)
(0.86773178149 -0.00138851309633 0)
(0.86879765357 -0.00228455622162 0)
(0.870452104397 -0.00381462435665 0)
(0.873013961417 -0.0065029241113 0)
(0.87688202668 -0.0113588021167 0)
(0.882378663741 -0.0202512407141 0)
(0.889686876971 -0.0364507939299 0)
(0.896361385066 -0.0654892162036 0)
(0.886531649212 -0.110039244635 0)
(1.01287875531 0.11896102347 0)
(1.08820672423 0.231806936929 0)
(1.1374137016 0.253106765015 0)
(1.15409090984 0.228992754128 0)
(1.14994216249 0.188368359454 0)
(1.1353847183 0.146579844477 0)
(1.11758902075 0.110150965979 0)
(1.10059508314 0.0808162221474 0)
(1.08612466014 0.0582265762187 0)
(1.07459102084 0.0413189846381 0)
(1.06579157017 0.0289160197635 0)
(1.05928809938 0.019960099515 0)
(1.05459988109 0.013581559738 0)
(1.05129088975 0.00909744295393 0)
(1.0489999787 0.00598615393712 0)
(1.04744354224 0.00385696658657 0)
(1.04640667541 0.00242159820665 0)
(1.04573076643 0.00147015043996 0)
(1.04530121692 0.000851702232988 0)
(1.04503672516 0.00045901646159 0)
(1.04488036745 0.000216756721758 0)
(1.04479275563 7.30174021446e-05 0)
(1.04474889457 -5.50468016712e-06 0)
(1.04473199894 -4.40093724587e-05 0)
(1.0447297517 -5.93869839895e-05 0)
(1.04473523889 -6.17210828028e-05 0)
(1.04474418988 -5.7247909617e-05 0)
(1.04475407686 -4.98062985882e-05 0)
(1.04476352032 -4.16472479233e-05 0)
(1.04477185032 -3.39918230606e-05 0)
(1.04477881661 -2.74262461153e-05 0)
(1.04478440655 -2.21539951637e-05 0)
(1.04478876606 -1.81301918294e-05 0)
(1.04479210629 -1.51406213864e-05 0)
(1.04479468187 -1.28092474945e-05 0)
(1.04479678541 -1.10127779744e-05 0)
(1.04479852852 -9.52424799917e-06 0)
(1.04479985656 -8.23497877629e-06 0)
(1.04480083963 -7.21614516232e-06 0)
(1.04480152846 -6.54739192118e-06 0)
(1.04480194438 -6.16841406276e-06 0)
(1.04480217482 -5.96043744955e-06 0)
(1.04480226533 -5.87245886443e-06 0)
(1.04480225444 -5.85567146238e-06 0)
(1.04480216733 -5.86971165012e-06 0)
(1.04480202191 -5.89451590023e-06 0)
(1.04480183571 -5.92039429577e-06 0)
(1.04480163 -5.94312944739e-06 0)
(1.04480143067 -5.96648419256e-06 0)
(1.04480124413 -6.00272048212e-06 0)
(1.0448010859 -6.03491666775e-06 0)
(1.04480100156 -6.0609299872e-06 0)
(1.04480104582 -6.08735776713e-06 0)
(1.04480129445 -6.12944871721e-06 0)
(1.04480187006 -6.22606076952e-06 0)
(1.04480295239 -6.49358466001e-06 0)
(1.04480472852 -7.19051998838e-06 0)
(1.04480749171 -8.59523064493e-06 0)
(1.04481155432 -1.1200163473e-05 0)
(1.04481738614 -1.50310665051e-05 0)
(1.04482600191 -1.9967892871e-05 0)
(1.04483855306 -2.61997478001e-05 0)
(1.04485633075 -3.6005143403e-05 0)
(1.0448816363 -5.23661994256e-05 0)
(1.0449179394 -7.94999632418e-05 0)
(1.04497039252 -0.000123650628676 0)
(1.04504659762 -0.000194586491482 0)
(1.04515790052 -0.000307884143552 0)
(1.04532144409 -0.000488705136036 0)
(1.045563086 -0.00077806737414 0)
(1.04592149729 -0.001243281477 0)
(1.04645451982 -0.00199597513683 0)
(1.04724624774 -0.00322666685182 0)
(1.04840959584 -0.00526610348324 0)
(1.05007183295 -0.00869107501642 0)
(1.052289569 -0.0144952361452 0)
(1.05481876686 -0.02428548821 0)
(1.05686983614 -0.040371600653 0)
(1.05573710661 -0.0655927901565 0)
(1.04212349637 -0.0994522335996 0)
(1.00447483876 0.0814039979848 0)
(1.06917238898 0.181288539435 0)
(1.13080571637 0.216950419579 0)
(1.17375004554 0.210789156419 0)
(1.19865270519 0.183690077584 0)
(1.21019994424 0.149751683763 0)
(1.21350263176 0.116779144213 0)
(1.21251732395 0.0882206776459 0)
(1.20973107493 0.0650481503741 0)
(1.20651129602 0.0470209080966 0)
(1.20351924039 0.033406807597 0)
(1.20101156651 0.0233557316062 0)
(1.199034573 0.0160720130392 0)
(1.19753890822 0.0108795131539 0)
(1.19644145016 0.00723418778886 0)
(1.19565572776 0.00471351855359 0)
(1.19510503817 0.00299762947991 0)
(1.19472663121 0.00184916146808 0)
(1.19447165592 0.00109496118445 0)
(1.19430335092 0.000610612144315 0)
(1.19419471641 0.000307987244206 0)
(1.19412643595 0.000125768998145 0)
(1.1940853897 2.22232922504e-05 0)
(1.19406213376 -3.24522671964e-05 0)
(1.19404983576 -5.72714273985e-05 0)
(1.19404433888 -6.45976503793e-05 0)
(1.19404284252 -6.23762639634e-05 0)
(1.19404352841 -5.55220563385e-05 0)
(1.19404528104 -4.69452806234e-05 0)
(1.19404744233 -3.82593952889e-05 0)
(1.19404964019 -3.02655599958e-05 0)
(1.19405168242 -2.32686681436e-05 0)
(1.19405349962 -1.72925287828e-05 0)
(1.19405508648 -1.2263295934e-05 0)
(1.19405645897 -8.07511627804e-06 0)
(1.19405763591 -4.67365738188e-06 0)
(1.19405858963 -2.06240698881e-06 0)
(1.19405926693 -1.72866868908e-07 0)
(1.19405962712 1.14483319296e-06 0)
(1.19405974514 2.00014462786e-06 0)
(1.19405980239 2.6771872989e-06 0)
(1.19405983626 3.27812857759e-06 0)
(1.1940598198 3.80294515804e-06 0)
(1.19405976963 4.26139880906e-06 0)
(1.19405968242 4.6650828878e-06 0)
(1.19405954934 5.03045481373e-06 0)
(1.19405937338 5.36954965921e-06 0)
(1.19405916158 5.6855881242e-06 0)
(1.19405892377 5.96983765531e-06 0)
(1.19405870212 6.20636878014e-06 0)
(1.19405854346 6.41888608973e-06 0)
(1.19405847737 6.60069764718e-06 0)
(1.19405855245 6.72515566052e-06 0)
(1.19405882622 6.75111524127e-06 0)
(1.19405933129 6.61853171538e-06 0)
(1.19406004957 6.23540700786e-06 0)
(1.19406107163 5.4507039372e-06 0)
(1.19406254972 3.87692661944e-06 0)
(1.19406516577 1.11258310036e-06 0)
(1.19406994685 -3.14222549711e-06 0)
(1.19407741102 -9.66602690745e-06 0)
(1.19408749834 -1.98364223195e-05 0)
(1.19410098213 -3.56727313631e-05 0)
(1.19411985233 -6.009223122e-05 0)
(1.1941462358 -9.76769022042e-05 0)
(1.19418295595 -0.000155743636057 0)
(1.19423400437 -0.000245938075627 0)
(1.19430501451 -0.000386738235225 0)
(1.19440387066 -0.000607600293509 0)
(1.19454134891 -0.000955855398064 0)
(1.19473149203 -0.00150801379005 0)
(1.19499107036 -0.00238835100815 0)
(1.19533489256 -0.00380008537732 0)
(1.19576020676 -0.00607613744111 0)
(1.19620667052 -0.00975533575415 0)
(1.19645454154 -0.0156814739831 0)
(1.19591699654 -0.0250654329696 0)
(1.19343951407 -0.0393628698963 0)
(1.18668702714 -0.0598168561863 0)
(1.17014111842 -0.0851175488062 0)
(0.998962329663 0.0544316261312 0)
(1.05310958384 0.133401608555 0)
(1.11628271119 0.170777559486 0)
(1.17301276055 0.175143873286 0)
(1.2179125151 0.159583607364 0)
(1.25049864242 0.134951020818 0)
(1.27288498494 0.10841165725 0)
(1.28776730399 0.0838849719915 0)
(1.29745277117 0.0630565723332 0)
(1.30366084963 0.0462999212645 0)
(1.30759245043 0.0333205147151 0)
(1.31005381584 0.0235495240369 0)
(1.31157374729 0.0163599079812 0)
(1.31249505748 0.0111713156112 0)
(1.31303875797 0.00749150739101 0)
(1.31334685709 0.0049244867371 0)
(1.31351027845 0.00316295610018 0)
(1.31358691572 0.00197475259876 0)
(1.31361329925 0.00118819734875 0)
(1.31361215671 0.000678629388871 0)
(1.31359732577 0.000357008165516 0)
(1.31357701094 0.000160753438721 0)
(1.31355602248 4.64681849342e-05 0)
(1.31353673252 -1.58708195831e-05 0)
(1.31352007976 -4.60598092206e-05 0)
(1.31350639596 -5.70702920928e-05 0)
(1.31349549636 -5.73254384283e-05 0)
(1.31348704407 -5.20872632294e-05 0)
(1.31348065092 -4.45250657458e-05 0)
(1.31347593196 -3.64631727437e-05 0)
(1.31347253602 -2.8874761858e-05 0)
(1.31347016051 -2.22133616359e-05 0)
(1.31346854544 -1.66303913393e-05 0)
(1.3134674625 -1.21333024875e-05 0)
(1.31346674614 -8.65659519764e-06 0)
(1.31346629876 -6.0986638428e-06 0)
(1.313466019 -4.32236132827e-06 0)
(1.31346581719 -3.1203972735e-06 0)
(1.31346569004 -2.2635490957e-06 0)
(1.31346572327 -1.54776271004e-06 0)
(1.31346587974 -9.72323348303e-07 0)
(1.31346598166 -5.60298044814e-07 0)
(1.31346597852 -2.0327013549e-07 0)
(1.31346590216 1.29904149394e-07 0)
(1.31346577366 4.37280069827e-07 0)
(1.31346560579 7.27085366015e-07 0)
(1.3134654024 1.0109290287e-06 0)
(1.31346516644 1.29887457417e-06 0)
(1.3134649081 1.60133939895e-06 0)
(1.31346466109 1.92137744481e-06 0)
(1.31346444877 2.20889462315e-06 0)
(1.31346427886 2.4251205952e-06 0)
(1.31346418182 2.52557495058e-06 0)
(1.3134642114 2.44639353274e-06 0)
(1.3134644562 2.10167092647e-06 0)
(1.31346503373 1.40666567106e-06 0)
(1.31346590948 3.04335665155e-07 0)
(1.31346719066 -1.38076574415e-06 0)
(1.31346929753 -3.88912695397e-06 0)
(1.31347243445 -7.95004428114e-06 0)
(1.31347681531 -1.48445297373e-05 0)
(1.31348267128 -2.6141583148e-05 0)
(1.31349028157 -4.34372124472e-05 0)
(1.31350013346 -6.99065200168e-05 0)
(1.31351254584 -0.000110577507356 0)
(1.31352760437 -0.000173196476074 0)
(1.31354493124 -0.00026984553294 0)
(1.31356321967 -0.000419477680126 0)
(1.31357928439 -0.000651904227947 0)
(1.31358622505 -0.00101433944779 0)
(1.3135699949 -0.0015817770821 0)
(1.31350317347 -0.00247324290721 0)
(1.31333155687 -0.00387595156875 0)
(1.31294760825 -0.00608221509723 0)
(1.31214138945 -0.00953644188328 0)
(1.31050764886 -0.0148800488913 0)
(1.30729321396 -0.0229411303616 0)
(1.30128876443 -0.0345598486578 0)
(1.29062703779 -0.0501733921744 0)
(1.2718368194 -0.0685550893552 0)
(0.995736078164 0.0346338609464 0)
(1.04179515987 0.0905689223099 0)
(1.10222841811 0.121549566497 0)
(1.16491416079 0.129605835641 0)
(1.22202572047 0.122009269796 0)
(1.26951898942 0.10601993946 0)
(1.30680231811 0.0870975568296 0)
(1.33499544437 0.0686366817434 0)
(1.35574487545 0.0523698395848 0)
(1.37069627806 0.0389256184388 0)
(1.38128287483 0.0282980738604 0)
(1.38866280516 0.0201712776819 0)
(1.39373046955 0.0141175110279 0)
(1.39715675138 0.00970533681693 0)
(1.39943450048 0.00655059627296 0)
(1.40091982978 0.00433445580477 0)
(1.40186638341 0.00280414614269 0)
(1.40245241115 0.00176574433569 0)
(1.40280151585 0.00107419623546 0)
(1.4029982196 0.000623235923556 0)
(1.40309944747 0.000336409817082 0)
(1.4031429071 0.000159623360347 0)
(1.40315317355 5.51640066421e-05 0)
(1.40314569023 -2.99870868184e-06 0)
(1.4031299362 -3.21236738188e-05 0)
(1.40311153934 -4.38916957418e-05 0)
(1.40309350687 -4.57623504817e-05 0)
(1.40307736361 -4.24207238969e-05 0)
(1.40306371113 -3.67302207314e-05 0)
(1.40305262337 -3.036747198e-05 0)
(1.40304389858 -2.42472430675e-05 0)
(1.40303721133 -1.88167721075e-05 0)
(1.40303220036 -1.42444813112e-05 0)
(1.40302851553 -1.05324647928e-05 0)
(1.40302585876 -7.5803010147e-06 0)
(1.40302399756 -5.2632072268e-06 0)
(1.40302275521 -3.45848664157e-06 0)
(1.40302198086 -2.02254257625e-06 0)
(1.4030215088 -8.50526151982e-07 0)
(1.40302114474 8.04579002961e-08 0)
(1.4030208202 7.88914234067e-07 0)
(1.40302061643 1.27806233965e-06 0)
(1.40302052211 1.64901547786e-06 0)
(1.40302044559 1.96679303328e-06 0)
(1.40302035197 2.26909762679e-06 0)
(1.40302023441 2.57421723356e-06 0)
(1.40302009165 2.89143322587e-06 0)
(1.40301992607 3.22527729182e-06 0)
(1.40301973955 3.57627673686e-06 0)
(1.40301952513 3.93513099323e-06 0)
(1.40301929437 4.26032992407e-06 0)
(1.40301908115 4.51976649938e-06 0)
(1.4030189139 4.67501855211e-06 0)
(1.40301881739 4.66831826892e-06 0)
(1.40301880813 4.41107756591e-06 0)
(1.40301889187 3.76031213947e-06 0)
(1.40301908175 2.51313567018e-06 0)
(1.4030193732 5.47864906233e-07 0)
(1.40301999664 -2.55038751666e-06 0)
(1.40302113495 -7.55334301043e-06 0)
(1.40302263893 -1.5257815175e-05 0)
(1.40302417944 -2.69849335899e-05 0)
(1.40302528464 -4.45881380222e-05 0)
(1.40302521322 -7.10528167503e-05 0)
(1.40302247558 -0.000110966539929 0)
(1.40301433381 -0.000171357708203 0)
(1.40299598504 -0.000263100125317 0)
(1.40295924837 -0.000403062507233 0)
(1.40289018864 -0.000617299455959 0)
(1.40276509332 -0.000946417490199 0)
(1.40254393758 -0.00145374138469 0)
(1.40216038601 -0.00223768238605 0)
(1.4015029047 -0.00344727257189 0)
(1.4003831698 -0.00530622273807 0)
(1.39848792963 -0.00813732241501 0)
(1.39530408321 -0.0123753498895 0)
(1.3900186279 -0.0185312462427 0)
(1.3814835383 -0.0270427480006 0)
(1.36820295618 -0.0379916781834 0)
(1.34778510071 -0.0504859498566 0)
(0.994011535325 0.0192358074312 0)
(1.03484765175 0.0523338414558 0)
(1.09199265722 0.072363128873 0)
(1.15662424299 0.0791292334531 0)
(1.22032121914 0.0761045476064 0)
(1.27701952057 0.0673339724763 0)
(1.32424426844 0.0561509043388 0)
(1.36181582631 0.0447990117459 0)
(1.39068540848 0.0345303783513 0)
(1.41226086003 0.0258814333086 0)
(1.42801834023 0.0189465249862 0)
(1.43929896731 0.0135849832418 0)
(1.44722820814 0.00955653558452 0)
(1.45270427131 0.00660011687035 0)
(1.45641910383 0.00447419187632 0)
(1.45889159726 0.00297351525539 0)
(1.46050246998 0.00193277059502 0)
(1.46152587482 0.00122369579914 0)
(1.46215589849 0.000749552569789 0)
(1.4625277309 0.000439019671308 0)
(1.46273401526 0.00024052283999 0)
(1.46283716479 0.000117413281358 0)
(1.46287847359 4.40503310334e-05 0)
(1.46288471829 2.69133522815e-06 0)
(1.46287259906 -1.84444965863e-05 0)
(1.46285225269 -2.74389931283e-05 0)
(1.46282970626 -2.94394218565e-05 0)
(1.46280817276 -2.76898740179e-05 0)
(1.46278918038 -2.41881718166e-05 0)
(1.46277327324 -2.01154616683e-05 0)
(1.46276044283 -1.61202895416e-05 0)
(1.46275039475 -1.25257049846e-05 0)
(1.46274271834 -9.45837330229e-06 0)
(1.46273698111 -6.92907943032e-06 0)
(1.46273278424 -4.88425456588e-06 0)
(1.46272978515 -3.25460685969e-06 0)
(1.46272769535 -1.97714983679e-06 0)
(1.4627262579 -1.01088554601e-06 0)
(1.46272526019 -3.1099433724e-07 0)
(1.46272463788 2.10810360907e-07 0)
(1.46272427862 6.90955909159e-07 0)
(1.46272403228 1.16572640499e-06 0)
(1.46272386631 1.5893003773e-06 0)
(1.46272374202 1.96786421695e-06 0)
(1.46272363002 2.32256177474e-06 0)
(1.46272351135 2.66687677833e-06 0)
(1.46272337286 3.00621874174e-06 0)
(1.4627232062 3.33868944673e-06 0)
(1.46272300722 3.65469840551e-06 0)
(1.46272277364 3.94138688428e-06 0)
(1.46272250879 4.19072765467e-06 0)
(1.46272222069 4.37127062881e-06 0)
(1.46272191671 4.43180730571e-06 0)
(1.46272160687 4.30224736661e-06 0)
(1.46272130805 3.89164966908e-06 0)
(1.46272104114 3.0906167211e-06 0)
(1.46272077552 1.77874668564e-06 0)
(1.46272042259 -1.67196777094e-07 0)
(1.46271984629 -2.9870396651e-06 0)
(1.462718909 -7.54988538223e-06 0)
(1.46271734368 -1.46387137972e-05 0)
(1.4627144708 -2.53484241584e-05 0)
(1.46270917151 -4.12238765482e-05 0)
(1.46269963955 -6.46476431734e-05 0)
(1.46268281361 -9.92197622597e-05 0)
(1.46265355322 -0.000150329554171 0)
(1.46260335166 -0.000226161149501 0)
(1.46251845346 -0.00033917916577 0)
(1.46237639324 -0.000507987333493 0)
(1.46214032545 -0.000761002609619 0)
(1.46175029172 -0.00114198281595 0)
(1.46111170242 -0.00171856718733 0)
(1.46007344326 -0.0025864811796 0)
(1.45839453036 -0.00388526944402 0)
(1.45570104028 -0.00580731972532 0)
(1.45142757821 -0.00859575379957 0)
(1.44475377183 -0.0125107319919 0)
(1.43461056574 -0.0177327178118 0)
(1.41973852139 -0.0242100051782 0)
(1.39829179824 -0.0313966817286 0)
(0.993269671266 0.00617015159113 0)
(1.03158101565 0.0171020471739 0)
(1.08672184809 0.0239906501733 0)
(1.1517455873 0.0265606674863 0)
(1.21823541808 0.0258180604198 0)
(1.27925780851 0.023048887613 0)
(1.33140143805 0.0193656328179 0)
(1.37377607645 0.0155468592616 0)
(1.40691063325 0.0120449315305 0)
(1.43203324306 0.00906640113951 0)
(1.45060226643 0.00666059631768 0)
(1.46402998322 0.00479009326981 0)
(1.4735502934 0.00337843041534 0)
(1.48017577428 0.00233874059538 0)
(1.48470243612 0.00158891683938 0)
(1.48773636112 0.00105829217715 0)
(1.48972750761 0.000689466278124 0)
(1.49100294652 0.000437642061464 0)
(1.49179603541 0.000268889436066 0)
(1.49227041467 0.000158114706437 0)
(1.49253891497 8.7128026393e-05 0)
(1.49267799941 4.29778867609e-05 0)
(1.49273854037 1.65874310154e-05 0)
(1.49275372118 1.66627674797e-06 0)
(1.49274449063 -6.06701803615e-06 0)
(1.49272370849 -9.41279951776e-06 0)
(1.49269907007 -1.02194187889e-05 0)
(1.4926748034 -9.65636748532e-06 0)
(1.49265300624 -8.4426204139e-06 0)
(1.49263452002 -6.99596315924e-06 0)
(1.49261946746 -5.5565727902e-06 0)
(1.49260758626 -4.24448938173e-06 0)
(1.49259844694 -3.10740933645e-06 0)
(1.4925915737 -2.15147995943e-06 0)
(1.49258651231 -1.36060147441e-06 0)
(1.4925828624 -7.13092306344e-07 0)
(1.49258028794 -1.875644368e-07 0)
(1.49257851875 2.37764237172e-07 0)
(1.4925773492 6.08844999476e-07 0)
(1.49257660145 9.78048511662e-07 0)
(1.49257612156 1.28293965664e-06 0)
(1.49257581785 1.56664465558e-06 0)
(1.49257563281 1.84697668541e-06 0)
(1.49257551414 2.13404437428e-06 0)
(1.49257542287 2.43502141529e-06 0)
(1.49257533282 2.75274230553e-06 0)
(1.49257522566 3.08656565561e-06 0)
(1.49257508834 3.43241769844e-06 0)
(1.49257491112 3.78176473181e-06 0)
(1.49257468569 4.12037720626e-06 0)
(1.49257440642 4.42816536457e-06 0)
(1.49257406958 4.67287035397e-06 0)
(1.49257366896 4.80914618794e-06 0)
(1.49257319237 4.77588664553e-06 0)
(1.49257261928 4.48795111372e-06 0)
(1.49257192278 3.82718563185e-06 0)
(1.49257108854 2.64247999916e-06 0)
(1.49256998049 8.45970467806e-07 0)
(1.49256818062 -1.79812966395e-06 0)
(1.49256539154 -5.91886861349e-06 0)
(1.49256122103 -1.20468695234e-05 0)
(1.49255464363 -2.09548999302e-05 0)
(1.49254404633 -3.37299107346e-05 0)
(1.49252688721 -5.19251221824e-05 0)
(1.49249905422 -7.77397750926e-05 0)
(1.49245384456 -0.000114197481791 0)
(1.49238038658 -0.000165678493219 0)
(1.49226161853 -0.000238665069363 0)
(1.49207016869 -0.000341647276102 0)
(1.49176140916 -0.000487179250199 0)
(1.49126306427 -0.000695496948694 0)
(1.49046641591 -0.00100026175776 0)
(1.48920203265 -0.00143385103833 0)
(1.48720401655 -0.00204380525762 0)
(1.48407390209 -0.00289148938609 0)
(1.47923182119 -0.00404438611354 0)
(1.47187085155 -0.00555677084527 0)
(1.46097734493 -0.00743016256964 0)
(1.445403878 -0.00957056163338 0)
(1.42354062513 -0.0117295273345 0)
(0.993270469038 -0.0061684005978 0)
(1.03158099811 -0.0171003748558 0)
(1.08672178153 -0.0239897602752 0)
(1.15174562465 -0.0265602454561 0)
(1.21823549565 -0.0258179918028 0)
(1.27925791024 -0.023049108903 0)
(1.33140156379 -0.0193660459914 0)