/*--------------------------------*- C++ -*----------------------------------*\
| =========                 |                                                 |
| \\      /  F ield         | OpenFOAM: The Open Source CFD Toolbox           |
|  \\    /   O peration     | Version:  2106                                  |
|   \\  /    A nd           | Website:  www.openfoam.com                      |
|    \\/     M anipulation  |                                                 |
\*---------------------------------------------------------------------------*/
FoamFile
{
    version     2.0;
    format      ascii;
    arch        "LSB;label=32;scalar=64";
    class       volVectorField;
    location    "0.035";
    object      U;
}
// * * * * * * * * * * * * * * * * * * * * * * * * * * * * * * * * * * * * * //

dimensions      [0 1 -1 0 0 0 0];

internalField   nonuniform List<vector> 
11200
(
(0.662453073535 0.150577632606 0)
(0.558923079301 0.103250379923 0)
(0.383835375664 0.0513504313283 0)
(0.283795087889 0.0248565450633 0)
(0.232262078377 0.0123823889962 0)
(0.202334088615 0.00656164357265 0)
(0.183975670708 0.00371204284424 0)
(0.17251967303 0.00219660099047 0)
(0.165315191188 0.00132270848564 0)
(0.160820502265 0.000789762384185 0)
(0.158091121543 0.000457226710908 0)
(0.156509874669 0.000251145714172 0)
(0.155660263553 0.000127079745883 0)
(0.155259859851 5.55115172513e-05 0)
(0.155118352609 1.71541108414e-05 0)
(0.155113426394 3.9186375125e-06 0)
(0.15517529045 9.61995777634e-06 0)
(0.155260917553 1.77488197495e-05 0)
(0.155343817008 2.45255038469e-05 0)
(0.155414222233 2.94577252236e-05 0)
(0.155469655642 3.24454372537e-05 0)
(0.155510758911 3.38713582555e-05 0)
(0.155539596731 3.50765915405e-05 0)
(0.155559502542 3.73799756111e-05 0)
(0.155573282589 3.9744754339e-05 0)
(0.155582485521 4.18678017958e-05 0)
(0.155588458679 4.38250537988e-05 0)
(0.155592269298 4.57541244455e-05 0)
(0.155594687894 4.77970102615e-05 0)
(0.15559620369 5.00416975506e-05 0)
(0.155597114156 5.23191915763e-05 0)
(0.155597633229 5.45523844529e-05 0)
(0.155597926354 5.67421246675e-05 0)
(0.155598104829 5.89182198201e-05 0)
(0.155598222035 6.10979385998e-05 0)
(0.155598304805 6.32889713996e-05 0)
(0.155598365931 6.54954007396e-05 0)
(0.155598409118 6.77180119215e-05 0)
(0.155598434641 6.99557929522e-05 0)
(0.155598442633 7.22069844742e-05 0)
(0.155598434526 7.44692552133e-05 0)
(0.155598413431 7.67396516274e-05 0)
(0.155598383539 7.90150153435e-05 0)
(0.155598348545 8.12927168574e-05 0)
(0.155598309936 8.35707351557e-05 0)
(0.15559826637 8.5846981825e-05 0)
(0.155598214066 8.81191660193e-05 0)
(0.155598148294 9.03848205621e-05 0)
(0.155598065059 9.26412434759e-05 0)
(0.155597962521 9.48847053671e-05 0)
(0.155597843605 9.7110448116e-05 0)
(0.15559771827 9.93140274664e-05 0)
(0.155597603392 0.000101491935401 0)
(0.155597521696 0.000103641300563 0)
(0.155597501672 0.000105759658122 0)
(0.155597578954 0.000107844332033 0)
(0.155597800167 0.000109891108535 0)
(0.155598231657 0.000111892656947 0)
(0.155598974184 0.000113835629462 0)
(0.155600176763 0.000115695613704 0)
(0.155602081011 0.000117413895089 0)
(0.155605109728 0.00011889899204 0)
(0.155609835909 0.000120164837595 0)
(0.15561703432 0.000121474253344 0)
(0.15562785642 0.000123382168532 0)
(0.155644132221 0.000125962972922 0)
(0.155668820405 0.000128911731615 0)
(0.155706499964 0.000131947077869 0)
(0.155763988534 0.000134910366457 0)
(0.15585105151 0.000138452202247 0)
(0.155984023391 0.000145983920035 0)
(0.156193772905 0.000161446373252 0)
(0.156525587193 0.000183124219549 0)
(0.157055351226 0.000211216114606 0)
(0.157945161503 0.000231956586312 0)
(0.159522165141 0.000155994530411 0)
(0.162532190686 -0.000379159461674 0)
(0.170882785772 -0.00272246374795 0)
(0.199523985921 -0.0133920219977 0)
(0.22776131384 -0.0621822683097 0)
(0.965402091846 0.289231655317 0)
(0.961968759362 0.252648003743 0)
(0.823677852335 0.158950094426 0)
(0.698483435619 0.095824527021 0)
(0.61100770125 0.0579412285914 0)
(0.550435616883 0.0357450566744 0)
(0.50900205015 0.0225193627859 0)
(0.481187735783 0.0143378460565 0)
(0.462787513467 0.00909766316933 0)
(0.450832936434 0.00567132215317 0)
(0.443271238816 0.00342197738775 0)
(0.438664606846 0.00196228240692 0)
(0.436001202277 0.00103880295916 0)
(0.434575243671 0.00047676611649 0)
(0.433905085491 0.000154012494433 0)
(0.433671804723 -1.12348247019e-05 0)
(0.433665834377 -7.93034162743e-05 0)
(0.433760106621 -9.693005449e-05 0)
(0.433887506821 -9.10767610158e-05 0)
(0.434012561013 -7.5866931813e-05 0)
(0.434119469608 -5.88446217532e-05 0)
(0.434204147093 -4.34190988231e-05 0)
(0.434268183028 -3.01140218355e-05 0)
(0.434314464966 -1.84529340703e-05 0)
(0.434346470727 -9.16291787217e-06 0)
(0.434368185212 -2.17437896686e-06 0)
(0.43438272924 2.92127153561e-06 0)
(0.434392432387 6.50413699029e-06 0)
(0.434398953475 8.82544478042e-06 0)
(0.434403172179 1.01236132655e-05 0)
(0.434405681183 1.10509639188e-05 0)
(0.43440712366 1.18154443708e-05 0)
(0.434407970781 1.24422910899e-05 0)
(0.434408498316 1.2999679379e-05 0)
(0.43440883234 1.35237541035e-05 0)
(0.43440904408 1.40297238461e-05 0)
(0.434409177144 1.45288235997e-05 0)
(0.434409255418 1.50267533571e-05 0)
(0.434409292322 1.55265646777e-05 0)
(0.43440929574 1.60298995441e-05 0)
(0.434409270698 1.65372843803e-05 0)
(0.434409220217 1.70486034041e-05 0)
(0.434409145379 1.75639165367e-05 0)
(0.434409045667 1.80842933873e-05 0)
(0.434408919588 1.86119060939e-05 0)
(0.434408765351 1.91496887158e-05 0)
(0.434408580726 1.9701369207e-05 0)
(0.434408364802 2.02687638897e-05 0)
(0.434408120201 2.08518255489e-05 0)
(0.434407853113 2.14494006574e-05 0)
(0.434407575016 2.20597271484e-05 0)
(0.434407305896 2.26816716624e-05 0)
(0.434407075966 2.33147319436e-05 0)
(0.434406926652 2.3958506197e-05 0)
(0.434406913859 2.46120784522e-05 0)
(0.434407115811 2.52724212806e-05 0)
(0.434407646284 2.59328573292e-05 0)
(0.434408676446 2.65824272676e-05 0)
(0.4344104712 2.72044245646e-05 0)
(0.434413419294 2.77776323461e-05 0)
(0.434418143731 2.82270522914e-05 0)
(0.43442581755 2.8450661631e-05 0)
(0.434438286347 2.8473969507e-05 0)
(0.434458188084 2.76003824579e-05 0)
(0.43448864936 2.39452716851e-05 0)
(0.43453417399 1.62773162734e-05 0)
(0.434602754645 3.39933551929e-06 0)
(0.434707360717 -1.68546933917e-05 0)
(0.434868349031 -4.78678627734e-05 0)
(0.435118535562 -9.40971532688e-05 0)
(0.435511355624 -0.000160365624078 0)
(0.436134383985 -0.000258289677422 0)
(0.43713292569 -0.00042736184179 0)
(0.438765038726 -0.000737791543674 0)
(0.441516988664 -0.00135907409136 0)
(0.446289848598 -0.00275962056997 0)
(0.454873782903 -0.00622934945084 0)
(0.472213179183 -0.0153984878879 0)
(0.505413437377 -0.0424615453791 0)
(0.521698811789 -0.123096585005 0)
(1.02222189278 0.238423540864 0)
(1.08218465833 0.295847984756 0)
(1.03469537969 0.23924643024 0)
(0.955199270947 0.173763790432 0)
(0.881202925013 0.120465013592 0)
(0.820766156499 0.0818058494806 0)
(0.774840275179 0.0550108057988 0)
(0.741662451447 0.0366343402907 0)
(0.718515121148 0.0240352995612 0)
(0.702842869538 0.0154175532275 0)
(0.692565619462 0.00957615311089 0)
(0.686072634118 0.00568548841255 0)
(0.682154651975 0.00316278021045 0)
(0.679929484156 0.00158714595269 0)
(0.678772840236 0.000652343580321 0)
(0.678256550436 0.00013614129508 0)
(0.678099565797 -0.000121434801888 0)
(0.678124549905 -0.000226915880453 0)
(0.678226057063 -0.000247987099306 0)
(0.678347892951 -0.000228128146577 0)
(0.678461891274 -0.000192610440764 0)
(0.678556769065 -0.000154746257156 0)
(0.678630331453 -0.000120873227736 0)
(0.678684522057 -9.34807870827e-05 0)
(0.678722922264 -7.23528006825e-05 0)
(0.678749369187 -5.65973710572e-05 0)
(0.678767094847 -4.51497817782e-05 0)
(0.678778631935 -3.70294668969e-05 0)
(0.678785956654 -3.15021156097e-05 0)
(0.678790851402 -2.80954795016e-05 0)
(0.678794269492 -2.62802784388e-05 0)
(0.678796416981 -2.55404131458e-05 0)
(0.678797711366 -2.55756580733e-05 0)
(0.678798526923 -2.6020725638e-05 0)
(0.678799036616 -2.6688575125e-05 0)
(0.678799348857 -2.74922534821e-05 0)
(0.678799535382 -2.8374090068e-05 0)
(0.678799637101 -2.93004682829e-05 0)
(0.678799678593 -3.02502143257e-05 0)
(0.678799674543 -3.12100022477e-05 0)
(0.678799633697 -3.21719555786e-05 0)
(0.67879956048 -3.31315572307e-05 0)
(0.678799455922 -3.40857562135e-05 0)
(0.678799319192 -3.50316205303e-05 0)
(0.678799149033 -3.59660947131e-05 0)
(0.678798944621 -3.68859044696e-05 0)
(0.678798703539 -3.77854143173e-05 0)
(0.678798424495 -3.86598628921e-05 0)
(0.678798112512 -3.95044276404e-05 0)
(0.678797778228 -4.03142206117e-05 0)
(0.678797438599 -4.1085667073e-05 0)
(0.678797120333 -4.18157041514e-05 0)
(0.678796862298 -4.25028604142e-05 0)
(0.678796718548 -4.31489803486e-05 0)
(0.67879676499 -4.37607179187e-05 0)
(0.678797112182 -4.43531947504e-05 0)
(0.678797926379 -4.49597307503e-05 0)
(0.678799464219 -4.56562798725e-05 0)
(0.678802132468 -4.66054582589e-05 0)
(0.678806521079 -4.80838857124e-05 0)
(0.678813576014 -5.067209696e-05 0)
(0.678825028884 -5.55144165039e-05 0)
(0.678842740304 -6.40208795688e-05 0)
(0.678868515312 -7.73748695322e-05 0)
(0.678906914972 -9.76831933005e-05 0)
(0.678966369587 -0.000127942412902 0)
(0.679058684875 -0.000172662879907 0)
(0.679201687434 -0.000239277904358 0)
(0.679423833904 -0.000339731982051 0)
(0.679771381323 -0.000493548150737 0)
(0.680319212725 -0.000734667996801 0)
(0.681183533547 -0.00112555541672 0)
(0.682558643937 -0.00178244125657 0)
(0.684780564886 -0.00292536198576 0)
(0.688422999204 -0.00500891221435 0)
(0.694412396321 -0.0090280867635 0)
(0.704167313612 -0.0171708235554 0)
(0.720319555063 -0.0343111575948 0)
(0.743389393273 -0.0718527734103 0)
(0.747470411606 -0.146805391912 0)
(1.02251964928 0.170789970262 0)
(1.10145532018 0.276312331338 0)
(1.11778004233 0.2661677829 0)
(1.09278668324 0.218942321457 0)
(1.05315852616 0.166613442192 0)
(1.01243129759 0.121326563742 0)
(0.976980700758 0.085894552282 0)
(0.94891614712 0.059433120047 0)
(0.928008730591 0.0401757404417 0)
(0.91312896657 0.0264368694972 0)
(0.9029613818 0.0168324256252 0)
(0.896291043907 0.0102782457317 0)
(0.89210575565 0.0059371863746 0)
(0.889615073789 0.00316720177303 0)
(0.888231700231 0.00148136226512 0)
(0.88753760224 0.00051730670414 0)
(0.88724676042 1.364943876e-05 0)
(0.88717649427 -0.000214098450113 0)
(0.887215083379 -0.000285455458251 0)
(0.887295334248 -0.000276927855011 0)
(0.887382377911 -0.00023426507459 0)
(0.887460221431 -0.000182551305564 0)
(0.887523290067 -0.000134031846849 0)
(0.88757130402 -9.35605846391e-05 0)
(0.887606308594 -6.20200384687e-05 0)
(0.887631039343 -3.85737450591e-05 0)
(0.887648077513 -2.17240758633e-05 0)
(0.887659557655 -9.90516417648e-06 0)
(0.887667075587 -1.74537272504e-06 0)
(0.887671733873 3.78588332736e-06 0)
(0.887674467417 7.12044092564e-06 0)
(0.887676018915 9.049050046e-06 0)
(0.887676976347 1.03922383791e-05 0)
(0.887677693697 1.13853774387e-05 0)
(0.887678196951 1.2188820547e-05 0)
(0.887678533433 1.28623329157e-05 0)
(0.887678756436 1.34578939366e-05 0)
(0.887678895718 1.40077701406e-05 0)
(0.887678970941 1.45359485097e-05 0)
(0.887678993576 1.50583646827e-05 0)
(0.887678970306 1.55844451868e-05 0)
(0.887678904562 1.61196119235e-05 0)
(0.887678796793 1.66673851689e-05 0)
(0.887678645044 1.72307590489e-05 0)
(0.887678446343 1.78133794867e-05 0)
(0.887678199968 1.84229213092e-05 0)
(0.887677904856 1.90754019323e-05 0)
(0.887677561591 1.97696258562e-05 0)
(0.887677177638 2.04970131686e-05 0)
(0.887676764971 2.12554115102e-05 0)
(0.887676342187 2.20413123686e-05 0)
(0.887675939132 2.2847634533e-05 0)
(0.887675598771 2.36613700555e-05 0)
(0.887675380758 2.44601210695e-05 0)
(0.887675368253 2.5207259366e-05 0)
(0.887675677557 2.58437377061e-05 0)
(0.887676467052 2.6273707752e-05 0)
(0.887677950953 2.63463275958e-05 0)
(0.887680466965 2.58689897384e-05 0)
(0.887684430041 2.46836885162e-05 0)
(0.887690324673 2.2026044292e-05 0)
(0.887699538211 1.67121648461e-05 0)
(0.887715165656 7.03598670582e-06 0)
(0.887741228333 -9.67468642121e-06 0)
(0.88778243678 -3.61829500025e-05 0)
(0.887845978531 -7.79933347985e-05 0)
(0.887943547517 -0.000144446881207 0)
(0.888093664993 -0.000250264609227 0)
(0.88832542336 -0.000419072564066 0)
(0.888684379428 -0.000689683275267 0)
(0.889241603322 -0.00112808061816 0)
(0.890109957863 -0.00184857754869 0)
(0.891471316942 -0.00304617206839 0)
(0.893612761264 -0.00507825852292 0)
(0.896971012444 -0.0086191660015 0)
(0.902129799587 -0.0149651244773 0)
(0.909674462372 -0.0265519870755 0)
(0.920086591366 -0.0477643430817 0)
(0.93108043583 -0.0862055370103 0)
(0.925600245077 -0.147954291156 0)
(1.01288399723 0.118917225721 0)
(1.08826339859 0.231520534536 0)
(1.13761957133 0.252389130053 0)
(1.15458780891 0.227647644047 0)
(1.15091469497 0.186223581201 0)
(1.13704813341 0.143523999327 0)
(1.12016866148 0.106167675158 0)
(1.10430274508 0.07600270063 0)
(1.09113526695 0.0527876551219 0)
(1.08102310595 0.0355368092407 0)
(1.07369511839 0.0231040247609 0)
(1.06864187661 0.0144141660752 0)
(1.06531822869 0.00854042011636 0)
(1.06323796633 0.00471975952367 0)
(1.06200817416 0.00234570049811 0)
(1.06133205673 0.000952336634693 0)
(1.06099735269 0.000195379198323 0)
(1.06086128178 -0.000167886546221 0)
(1.06083236961 -0.000305152965306 0)
(1.06085415377 -0.000322893171704 0)
(1.06089464148 -0.000285564760172 0)
(1.06093740008 -0.000229555347024 0)
(1.0609750806 -0.000173447946435 0)
(1.06100528938 -0.00012532467787 0)
(1.06102809762 -8.75355167577e-05 0)
(1.06104460484 -5.96526824531e-05 0)
(1.06105613742 -4.01070363991e-05 0)
(1.06106391756 -2.70384784849e-05 0)
(1.06106899108 -1.87057846075e-05 0)
(1.06107225061 -1.35961702527e-05 0)
(1.06107447825 -1.0412876869e-05 0)
(1.06107626866 -8.32986720553e-06 0)
(1.06107769814 -6.79420954706e-06 0)
(1.06107870026 -5.77348956793e-06 0)
(1.06107938314 -5.23782448216e-06 0)
(1.06107982609 -5.01552982325e-06 0)
(1.06108011802 -4.96241836171e-06 0)
(1.06108030513 -5.01002891753e-06 0)
(1.06108041714 -5.10506344185e-06 0)
(1.06108046915 -5.21495960305e-06 0)
(1.06108046932 -5.32378040217e-06 0)
(1.06108042186 -5.42351844939e-06 0)
(1.06108032782 -5.50933130762e-06 0)
(1.06108018667 -5.57786031701e-06 0)
(1.06108000027 -5.6272088831e-06 0)
(1.06107977729 -5.66000298283e-06 0)
(1.06107950785 -5.6899190564e-06 0)
(1.06107917198 -5.70938091652e-06 0)
(1.06107877598 -5.70211832374e-06 0)
(1.06107833754 -5.6627141096e-06 0)
(1.06107787445 -5.59104866794e-06 0)
(1.06107741306 -5.4897178542e-06 0)
(1.06107699104 -5.36680942839e-06 0)
(1.06107666008 -5.23916518255e-06 0)
(1.06107649195 -5.13633890026e-06 0)
(1.06107658882 -5.10653950178e-06 0)
(1.06107710441 -5.22844822882e-06 0)
(1.06107831349 -5.64447809329e-06 0)
(1.06108077356 -6.71845553422e-06 0)
(1.06108484288 -9.49837316234e-06 0)
(1.06109099994 -1.470095689e-05 0)
(1.06110081862 -2.19532964246e-05 0)
(1.0611158603 -3.30425969777e-05 0)
(1.06113837487 -5.20747167966e-05 0)
(1.0611726492 -8.48907958885e-05 0)
(1.06122493855 -0.000139964686739 0)
(1.06130456329 -0.000230499751202 0)
(1.06142572186 -0.000377566772256 0)
(1.06161024217 -0.000615126595023 0)
(1.06189163936 -0.000998324890383 0)
(1.06232092728 -0.00161748036596 0)
(1.0629754349 -0.00262201034033 0)
(1.06397005658 -0.00426484000299 0)
(1.06546499902 -0.00698270981803 0)
(1.06765641717 -0.0115350587981 0)
(1.07069190338 -0.0192368568209 0)
(1.07441508407 -0.0322625707914 0)
(1.07802887356 -0.0538910591601 0)
(1.07849343346 -0.0884703670381 0)
(1.06506831627 -0.137436520069 0)
(1.00447851884 0.0813416447952 0)
(1.0692014013 0.180936539363 0)
(1.13089779242 0.216097626023 0)
(1.17395591729 0.209213729128 0)
(1.19903593892 0.181199668934 0)
(1.21083180541 0.146224735345 0)
(1.2144549988 0.112201060429 0)
(1.21385656377 0.0827026953337 0)
(1.21151312044 0.0588202471694 0)
(1.2087774547 0.0403989011049 0)
(1.20629278513 0.0267423519112 0)
(1.2042956615 0.0169827048077 0)
(1.20281217265 0.0102623091213 0)
(1.2017749418 0.00581663470338 0)
(1.20108703654 0.00300670818736 0)
(1.20065347482 0.00132503251418 0)
(1.20039455803 0.000387301072604 0)
(1.20024939022 -8.3841407203e-05 0)
(1.20017470372 -0.000280482799846 0)
(1.2001412222 -0.000327761414026 0)
(1.20013002366 -0.000302741479218 0)
(1.20012982577 -0.000249824345308 0)
(1.20013426954 -0.000192404167458 0)
(1.20014001101 -0.000141231237417 0)
(1.20014547758 -9.99862966768e-05 0)
(1.20015007209 -6.87858368434e-05 0)
(1.20015369848 -4.62022805002e-05 0)
(1.20015648475 -3.03212853242e-05 0)
(1.20015861614 -1.92911982743e-05 0)
(1.20016028339 -1.15954227805e-05 0)
(1.20016163579 -6.18872756453e-06 0)
(1.20016272365 -2.47895258765e-06 0)
(1.20016348489 -1.7348725173e-07 0)
(1.20016388992 1.17359728597e-06 0)
(1.20016411235 1.94109964145e-06 0)
(1.20016432419 2.46645390926e-06 0)
(1.20016452134 2.8734445295e-06 0)
(1.20016468017 3.20016021625e-06 0)
(1.20016480467 3.47869275969e-06 0)
(1.20016488592 3.73529938207e-06 0)
(1.20016491755 3.98971699233e-06 0)
(1.20016489819 4.25483757498e-06 0)
(1.20016482668 4.53823969467e-06 0)
(1.2001646995 4.84401687934e-06 0)
(1.2001645089 5.17319668372e-06 0)
(1.2001642414 5.52020468417e-06 0)
(1.20016390346 5.86507637332e-06 0)
(1.20016352011 6.2089798722e-06 0)
(1.20016309815 6.57379323212e-06 0)
(1.20016263793 6.97631493315e-06 0)
(1.20016215404 7.41383761096e-06 0)
(1.20016167386 7.87448101468e-06 0)
(1.20016123542 8.33671352652e-06 0)
(1.2001608909 8.7639242396e-06 0)
(1.20016071285 9.09637748728e-06 0)
(1.20016080095 9.23986683685e-06 0)
(1.20016127508 9.04987412149e-06 0)
(1.20016218135 8.31385348249e-06 0)
(1.2001632228 6.69901062551e-06 0)
(1.20016465025 3.43044349195e-06 0)
(1.20016828957 -2.57716071255e-06 0)
(1.2001749788 -1.26762527777e-05 0)
(1.20018473115 -2.96954121946e-05 0)
(1.20019910935 -5.7259361865e-05 0)
(1.20022047512 -0.000101378314306 0)
(1.20025190534 -0.000171832777082 0)
(1.20029782561 -0.00028424301479 0)
(1.20036467811 -0.000463453994314 0)
(1.20046175799 -0.000749134152873 0)
(1.20060222353 -0.00120495649668 0)
(1.2008039052 -0.00193368426717 0)
(1.20108906275 -0.00310198519371 0)
(1.2014802047 -0.00498226291663 0)
(1.20198379761 -0.00802086670221 0)
(1.20254539331 -0.0129432360989 0)
(1.20293264164 -0.0209003239259 0)
(1.20248491899 -0.0335998134182 0)
(1.19981521902 -0.0532564943436 0)
(1.19200083683 -0.0821364809011 0)
(1.17214588073 -0.119980111892 0)
(0.998964147118 0.054363734887 0)
(1.05310363069 0.133039977684 0)
(1.11623277852 0.169915222474 0)
(1.17285975002 0.173561933043 0)
(1.21757469802 0.157093400491 0)
(1.2498751638 0.131434959686 0)
(1.27186495322 0.103857352383 0)
(1.28624378855 0.0784023088568 0)
(1.29533850995 0.0568704001677 0)
(1.30090132074 0.0397186008077 0)
(1.30417284952 0.0266882170287 0)
(1.30599865283 0.0171946885589 0)
(1.30694006136 0.01055214969 0)
(1.30736175709 0.00609500417782 0)
(1.30749498621 0.00323839570022 0)
(1.30748168109 0.00150255069608 0)
(1.30740515315 0.000515714571671 0)
(1.30731109301 4.47713588817e-06 0)
(1.30722235304 -0.000221785824946 0)
(1.30714829246 -0.000289965872795 0)
(1.30709075716 -0.000279097314532 0)
(1.30704827533 -0.000235392324435 0)
(1.30701813001 -0.000183767393702 0)
(1.30699743008 -0.000136115916294 0)
(1.30698362588 -9.69251167969e-05 0)
(1.30697467999 -6.68527645085e-05 0)
(1.306969068 -4.48401580619e-05 0)
(1.30696569619 -2.92854188163e-05 0)
(1.30696378414 -1.86080363007e-05 0)
(1.30696276113 -1.1481890879e-05 0)
(1.30696225094 -6.91604005336e-06 0)
(1.30696204144 -4.16973199766e-06 0)
(1.3069620025 -2.61998274466e-06 0)
(1.3069621214 -1.71252576736e-06 0)
(1.30696242284 -1.07689085595e-06 0)
(1.30696279075 -6.80808973034e-07 0)
(1.30696308644 -4.54950307171e-07 0)
(1.30696329455 -2.83258897853e-07 0)
(1.30696344393 -1.32681473753e-07 0)
(1.30696354696 1.02383869318e-08 0)
(1.30696360641 1.59618991702e-07 0)
(1.30696362024 3.27604742214e-07 0)
(1.30696358437 5.235800163e-07 0)
(1.30696349388 7.55728760032e-07 0)
(1.30696334305 1.03325497164e-06 0)
(1.30696312384 1.37028581596e-06 0)
(1.30696283246 1.79020962176e-06 0)
(1.30696248217 2.2974257383e-06 0)
(1.30696209136 2.87253456437e-06 0)
(1.30696165867 3.49262897673e-06 0)
(1.30696118048 4.1462142961e-06 0)
(1.30696067037 4.81425752058e-06 0)
(1.30696014955 5.46199823698e-06 0)
(1.30695964384 6.03195121008e-06 0)
(1.30695918559 6.43374455374e-06 0)
(1.30695881924 6.52969783008e-06 0)
(1.30695861973 6.11274784201e-06 0)
(1.306958736 4.88343424011e-06 0)
(1.30695931371 2.52633355199e-06 0)
(1.30696018124 -9.41188431448e-07 0)
(1.30696145052 -6.33219462729e-06 0)
(1.30696337719 -1.65567686301e-05 0)
(1.3069659516 -3.40024109379e-05 0)
(1.30696925157 -6.24896133616e-05 0)
(1.3069731501 -0.000108470576415 0)
(1.30697701 -0.000182124813974 0)
(1.3069793675 -0.000299439363323 0)
(1.30697726321 -0.000485621362941 0)
(1.30696499397 -0.000780564751753 0)
(1.306931812 -0.00124757367586 0)
(1.30685755601 -0.0019872656818 0)
(1.30670432688 -0.00315946101084 0)
(1.30640025463 -0.0050173130031 0)
(1.30580745099 -0.00795824164828 0)
(1.30466088627 -0.0125931198654 0)
(1.30245189038 -0.0198234567578 0)
(1.29822929137 -0.0308699168555 0)
(1.29040904012 -0.0471215149562 0)
(1.27643483163 -0.0696706301886 0)
(1.25162504694 -0.0978287845182 0)
(0.995736532873 0.0345739934666 0)
(1.04175640168 0.0902576039903 0)
(1.10204223191 0.120812670833 0)
(1.1644150419 0.128258363266 0)
(1.22099092199 0.119892113447 0)
(1.267680304 0.103034589733 0)
(1.30387088159 0.0832341997643 0)
(1.33069494071 0.0639877853294 0)
(1.34984671239 0.04712377002 0)
(1.36304902846 0.0333406612596 0)
(1.37182946583 0.0226631325361 0)
(1.37744243834 0.0147631817252 0)
(1.38086637433 0.00916494741518 0)
(1.382834047 0.00536629462276 0)
(1.38387384111 0.00290553509871 0)
(1.3843520852 0.00139310303593 0)
(1.38451214783 0.000521250662067 0)
(1.38450827769 6.03651275345e-05 0)
(1.38443234859 -0.000151359693658 0)
(1.38433519081 -0.000222830996413 0)
(1.38424245169 -0.00022263059995 0)
(1.38416460166 -0.000191303498949 0)
(1.3841040369 -0.000151053753717 0)
(1.38405933354 -0.000112752217746 0)
(1.38402763208 -8.07459741471e-05 0)
(1.38400587752 -5.5950009732e-05 0)
(1.38399137726 -3.76962098605e-05 0)
(1.38398198001 -2.47656092776e-05 0)
(1.38397606278 -1.58914078675e-05 0)
(1.38397244503 -9.96384824795e-06 0)
(1.38397032033 -6.06740337876e-06 0)
(1.38396918907 -3.51374515931e-06 0)
(1.38396871413 -1.80051145965e-06 0)
(1.3839686125 -6.04958756825e-07 0)
(1.38396861917 1.98602263846e-07 0)
(1.38396865967 7.02181725771e-07 0)
(1.38396880199 9.97200814772e-07 0)
(1.38396899981 1.19796528512e-06 0)
(1.38396918027 1.36463895265e-06 0)
(1.38396932378 1.52764771504e-06 0)
(1.38396942633 1.70385623892e-06 0)
(1.38396948517 1.90416396119e-06 0)
(1.38396949759 2.13703786944e-06 0)
(1.38396946085 2.41013119854e-06 0)
(1.38396937245 2.73106029871e-06 0)
(1.38396923038 3.10804635662e-06 0)
(1.38396903387 3.55262988156e-06 0)
(1.38396877337 4.07370398399e-06 0)
(1.38396843341 4.66208900058e-06 0)
(1.38396802093 5.29726109423e-06 0)
(1.38396755462 5.97048614682e-06 0)
(1.38396704453 6.66733609049e-06 0)
(1.38396649919 7.35908940511e-06 0)
(1.38396592742 7.99679520068e-06 0)
(1.38396533895 8.50421571334e-06 0)
(1.38396474251 8.76743584603e-06 0)
(1.38396413432 8.61507964962e-06 0)
(1.38396348454 7.77416706222e-06 0)
(1.38396275672 5.7918477728e-06 0)
(1.38396180976 2.13921147822e-06 0)
(1.3839601375 -3.62488159695e-06 0)
(1.38395731462 -1.37010054279e-05 0)
(1.38395269749 -3.03518192557e-05 0)
(1.38394468518 -5.71063632202e-05 0)
(1.38393066394 -9.97474381269e-05 0)
(1.38390625665 -0.000167343146133 0)
(1.38386415727 -0.00027400638757 0)
(1.38379220977 -0.000441767925303 0)
(1.38367025074 -0.000705123928806 0)
(1.38346490789 -0.00111812968087 0)
(1.38312095089 -0.00176534445276 0)
(1.38254686948 -0.00277838312718 0)
(1.38159074326 -0.00436020196804 0)
(1.38000006335 -0.00681836472324 0)
(1.37735695654 -0.0106046126212 0)
(1.37297639475 -0.0163475949412 0)
(1.36576312645 -0.0248361236885 0)
(1.35411448988 -0.0368708039308 0)
(1.33582200951 -0.0529260836748 0)
(1.30744735639 -0.0723669585608 0)
(0.994011256147 0.0191951363518 0)
(1.03478438299 0.0521242142466 0)
(1.09170193583 0.0718685243705 0)
(1.1558573964 0.0782260367695 0)
(1.21874493887 0.0746864734507 0)
(1.27423398249 0.0653353748056 0)
(1.31982024183 0.0535653086701 0)
(1.35534284763 0.0416878707618 0)
(1.38182206641 0.0310187237157 0)
(1.40077699629 0.0221407712175 0)
(1.41382039425 0.0151690086139 0)
(1.42243412331 0.00995526460868 0)
(1.42786841231 0.00622781975846 0)
(1.43111560089 0.00367899114009 0)
(1.43292419391 0.00201578954805 0)
(1.43383263572 0.000985750023854 0)
(1.43421039797 0.000386629381144 0)
(1.43429889107 6.60007217799e-05 0)
(1.43424694184 -8.47832027845e-05 0)
(1.43414048393 -0.000138856112635 0)
(1.43402537297 -0.000142813456241 0)
(1.43392276101 -0.000124440997593 0)
(1.43383996147 -9.90915555563e-05 0)
(1.43377726852 -7.43968283315e-05 0)
(1.43373192558 -5.35120267941e-05 0)
(1.43370028509 -3.72110600276e-05 0)
(1.43367886005 -2.51477983015e-05 0)
(1.43366474267 -1.65630131776e-05 0)
(1.43365568629 -1.06338572376e-05 0)
(1.43365003877 -6.63062962958e-06 0)
(1.43364663975 -3.95920731328e-06 0)
(1.43364470388 -2.18833834412e-06 0)
(1.43364368117 -1.04780411429e-06 0)
(1.43364319706 -3.56572485468e-07 0)
(1.43364306369 5.03102798175e-08 0)
(1.43364312969 3.85283831815e-07 0)
(1.4336432729 6.8536572619e-07 0)
(1.43364345285 9.34277720321e-07 0)
(1.43364363397 1.1562363321e-06 0)
(1.4336437967 1.37635979476e-06 0)
(1.43364393034 1.6113458971e-06 0)
(1.43364402787 1.87258284084e-06 0)
(1.433644084 2.16814634367e-06 0)
(1.43364409412 2.50395230158e-06 0)
(1.43364405358 2.88429571826e-06 0)
(1.43364395765 3.31179015429e-06 0)
(1.43364380305 3.78743476552e-06 0)
(1.43364358593 4.3100910255e-06 0)
(1.43364330115 4.88723216483e-06 0)
(1.43364294859 5.52920669696e-06 0)
(1.43364253026 6.22802836701e-06 0)
(1.43364204434 6.96424416726e-06 0)
(1.43364148453 7.70523301403e-06 0)
(1.43364083789 8.39969413206e-06 0)
(1.43364008308 8.97085383346e-06 0)
(1.43363918631 9.30524265504e-06 0)
(1.43363809342 9.23603902197e-06 0)
(1.43363672688 8.52553775907e-06 0)
(1.4336350249 6.83643017839e-06 0)
(1.43363280663 3.70568442124e-06 0)
(1.43362879855 -1.24053403841e-06 0)
(1.43362176726 -8.8440114215e-06 0)
(1.43361060004 -2.19355734551e-05 0)
(1.4335925063 -4.31937354165e-05 0)
(1.43356283726 -7.67048849544e-05 0)
(1.43351415183 -0.000129065935548 0)
(1.43343441739 -0.00021052761095 0)
(1.43330411651 -0.000336843102672 0)
(1.43309167303 -0.000532288141215 0)
(1.43274619533 -0.000834273911754 0)
(1.43218593075 -0.00130025398874 0)
(1.43128004598 -0.0020177704951 0)
(1.42982024398 -0.00311840441204 0)
(1.4274775563 -0.00479537295779 0)
(1.423739617 -0.00732154366814 0)
(1.41782469954 -0.0110580865904 0)
(1.40857994561 -0.0164286784859 0)
(1.39444165846 -0.0238176730881 0)
(1.37344319312 -0.0333792322813 0)
(1.34281102605 -0.0446776412883 0)
(0.99326911085 0.00615585340414 0)
(1.03150481963 0.0170282396346 0)
(1.08637490695 0.0238166381028 0)
(1.15083383483 0.0262430365026 0)
(1.21636505659 0.0253194751881 0)
(1.27595682956 0.0223463037887 0)
(1.32616344959 0.0184567738983 0)
(1.36611665132 0.014453242047 0)
(1.39642583734 0.0108103249798 0)
(1.41844881759 0.00775085995956 0)
(1.43380349995 0.00533146103008 0)
(1.44406721626 0.00351216802373 0)
(1.45062106865 0.00220560028746 0)
(1.45458971926 0.00130862939591 0)
(1.45683764979 0.000721145802748 0)
(1.45799602975 0.000355911976215 0)
(1.45850340043 0.000142527206554 0)
(1.45864952652 2.76396245525e-05 0)
(1.4586152795 -2.69762866553e-05 0)
(1.4585065911 -4.70957631624e-05 0)
(1.45838092927 -4.921831721e-05 0)
(1.45826572426 -4.32209054036e-05 0)
(1.45817127579 -3.45837880139e-05 0)
(1.45809900339 -2.60517349233e-05 0)
(1.45804631978 -1.87791132235e-05 0)
(1.45800931998 -1.30697340514e-05 0)
(1.45798412031 -8.82173236393e-06 0)
(1.45796742046 -5.77614218116e-06 0)
(1.45795664161 -3.65363902337e-06 0)
(1.4579498717 -2.20243109891e-06 0)
(1.45794575381 -1.21775220006e-06 0)
(1.45794335694 -5.51437206248e-07 0)
(1.45794205113 -1.0453174223e-07 0)
(1.45794142323 2.13574481687e-07 0)
(1.45794121125 4.70003976061e-07 0)
(1.45794122891 6.64384741945e-07 0)
(1.45794135885 8.37861211308e-07 0)
(1.45794154361 1.00649937608e-06 0)
(1.45794174449 1.18421779368e-06 0)
(1.45794193695 1.38196162937e-06 0)
(1.45794210712 1.60778679931e-06 0)
(1.4579422466 1.86817809619e-06 0)
(1.4579423495 2.16844999717e-06 0)
(1.45794241089 2.51332704264e-06 0)
(1.45794242607 2.9072740578e-06 0)
(1.45794239047 3.35489197098e-06 0)
(1.45794230019 3.8612182454e-06 0)
(1.45794215051 4.4300105787e-06 0)
(1.4579419354 5.06475865278e-06 0)
(1.45794165037 5.76667314738e-06 0)
(1.45794129101 6.52919660756e-06 0)
(1.45794084802 7.33798806593e-06 0)
(1.45794030413 8.16810641689e-06 0)
(1.45793963128 8.98114352636e-06 0)
(1.45793878653 9.72124750968e-06 0)
(1.45793770258 1.03066538441e-05 0)
(1.45793627118 1.06155705221e-05 0)
(1.45793431952 1.04649735604e-05 0)
(1.45793162112 9.56362002945e-06 0)
(1.45792798269 7.39150873644e-06 0)
(1.45792253119 3.32709975999e-06 0)
(1.4579128269 -2.28941651801e-06 0)
(1.45789668378 -1.02292131928e-05 0)
(1.45787139636 -2.25891645805e-05 0)
(1.45783106516 -4.21460406148e-05 0)
(1.45776615302 -7.25431892406e-05 0)
(1.4576616954 -0.00011898151591 0)
(1.45749384855 -0.000188857728538 0)
(1.45722449745 -0.000292983686022 0)
(1.45679295591 -0.000447268735783 0)
(1.45610306332 -0.000675050417403 0)
(1.45500335451 -0.00101020532658 0)
(1.45325721787 -0.00150101650667 0)
(1.45049945072 -0.00221423415663 0)
(1.44617652856 -0.00323749093039 0)
(1.43947071159 -0.00467615850015 0)
(1.42921938809 -0.00663629127645 0)
(1.41389779414 -0.0091828765426 0)
(1.39165891585 -0.012284839117 0)
(1.36002474197 -0.0157246738211 0)
(0.993269909887 -0.00615387033819 0)
(1.03150480584 -0.017026452905 0)
(1.08637484429 -0.0238157189999 0)
(1.1508338743 -0.0262426247201 0)
(1.21636513335 -0.0253194138437 0)
(1.27595692751 -0.0223464966317 0)