/*--------------------------------*- C++ -*----------------------------------*\
| =========                 |                                                 |
| \\      /  F ield         | OpenFOAM: The Open Source CFD Toolbox           |
|  \\    /   O peration     | Version:  2106                                  |
|   \\  /    A nd           | Website:  www.openfoam.com                      |
|    \\/     M anipulation  |                                                 |
\*---------------------------------------------------------------------------*/
FoamFile
{
    version     2.0;
    format      ascii;
    arch        "LSB;label=32;scalar=64";
    class       surfaceScalarField;
    location    "0.42";
    object      phi;
}
// * * * * * * * * * * * * * * * * * * * * * * * * * * * * * * * * * * * * * //

dimensions      [0 3 -1 0 0 0 0];

oriented        oriented;

internalField   nonuniform List<scalar> 
18840
(
3.37543048908e-05
1.62456951113e-05
2.25359621411e-05
1.12183415616e-05
1.63023779204e-05
6.23358469335e-06
1.28098253846e-05
3.49255293083e-06
1.0806580177e-05
2.00324494635e-06
9.60476916101e-06
1.20181086061e-06
8.85167882418e-06
7.53090559357e-07
8.36503100663e-06
4.86647800722e-07
8.04518646474e-06
3.19844536483e-07
7.83374231578e-06
2.11444157687e-07
7.69428239363e-06
1.3945997251e-07
7.60308071982e-06
9.12016714476e-08
7.54426574014e-06
5.88149234402e-08
7.50707748992e-06
3.71883175977e-08
7.4841895626e-06
2.28879546864e-08
7.47062406578e-06
1.35654856854e-08
7.46302155319e-06
7.60247121538e-09
7.45913882591e-06
3.88270904952e-09
7.45749913545e-06
1.63971612057e-09
7.4571460998e-06
3.53080095785e-10
7.45748349837e-06
-3.37376176818e-10
7.45813457783e-06
-6.51109768411e-10
7.45888657954e-06
-7.52036339075e-10
7.45962028066e-06
-7.33715132244e-10
7.46027675279e-06
-6.56478561892e-10
7.46083322575e-06
-5.564924923e-10
7.46128741457e-06
-4.54210845113e-10
7.46164764742e-06
-3.60230935936e-10
7.46192684908e-06
-2.79178035148e-10
7.46213908463e-06
-2.12207252013e-10
7.46229766705e-06
-1.58576866134e-10
7.46241432646e-06
-1.16660136566e-10
7.46249893879e-06
-8.45878084023e-11
7.46255944918e-06
-6.05084473957e-11
7.46260210034e-06
-4.26998158968e-11
7.4626317637e-06
-2.97092225372e-11
7.46265209599e-06
-2.03701136191e-11
7.46266581872e-06
-1.37545387013e-11
7.46267495403e-06
-9.14497298968e-12
7.46268092685e-06
-5.98249848139e-12
7.46268476821e-06
-3.84827835403e-12
7.46268722004e-06
-2.42222880364e-12
7.46268882379e-06
-1.56235347614e-12
7.46268975204e-06
-9.14796751767e-13
7.46269031196e-06
-5.60968035247e-13
7.46269066589e-06
-3.5531386891e-13
7.4626909188e-06
-2.4878460789e-13
7.46269112393e-06
-2.00412612633e-13
7.46269132392e-06
-2.01407464821e-13
7.46269150967e-06
-2.2515288508e-13
7.46269172183e-06
-2.33820271688e-13
7.46269201154e-06
-2.69877374221e-13
7.46269230623e-06
-3.17162202599e-13
7.46269262524e-06
-3.36605248911e-13
7.4626929881e-06
-3.53096270965e-13
7.46269337361e-06
-3.87301631674e-13
7.46269378328e-06
-4.29637974787e-13
7.46269423552e-06
-4.82025571365e-13
7.4626947159e-06
-5.31879553314e-13
7.4626952464e-06
-5.67390107536e-13
7.46269584255e-06
-6.01326761767e-13
7.4626964657e-06
-6.274050597e-13
7.46269710981e-06
-6.40201256324e-13
7.46269778414e-06
-6.65838636074e-13
7.46269846434e-06
-7.08751007027e-13
7.4626991604e-06
-7.43708243959e-13
7.46269990689e-06
-7.65690685992e-13
7.46270071009e-06
-7.94847794916e-13
7.4627015564e-06
-8.36484112336e-13
7.46270244226e-06
-8.76918293592e-13
7.462703364e-06
-9.1188057732e-13
7.46270432764e-06
-9.47707927928e-13
7.46270534579e-06
-9.95153228604e-13
7.46270639687e-06
-1.04999774235e-12
7.462707455e-06
-1.09122832595e-12
7.46270854404e-06
-1.12963028652e-12
7.46270967893e-06
-1.19535922274e-12
7.46271084133e-06
-1.26443934966e-12
7.46271205677e-06
-1.30088928783e-12
7.4627133595e-06
-1.32757077121e-12
7.46271471492e-06
-1.36292338936e-12
7.46271610305e-06
-1.3957176042e-12
7.46271753586e-06
-1.43811235824e-12
7.46271899242e-06
-1.49263821226e-12
7.46272049633e-06
-1.54604868809e-12
7.4627220932e-06
-1.61022152119e-12
7.46272374081e-06
-1.66866170172e-12
7.46272542657e-06
-1.69645526515e-12
7.46272720155e-06
-1.74181443499e-12
7.46272905196e-06
-1.83739559428e-12
7.46273094496e-06
-1.91913904344e-12
7.46273290083e-06
-1.94666260246e-12
7.46273493614e-06
-1.99623724818e-12
7.46273702189e-06
-2.11707412987e-12
7.46273917538e-06
-2.23899218776e-12
7.46274147584e-06
-2.32828543829e-12
7.46274393806e-06
-2.42854116769e-12
7.4627465546e-06
-2.55864401636e-12
7.46274935247e-06
-2.71657847571e-12
7.4627523501e-06
-2.89805800997e-12
7.46275555734e-06
-3.08725700674e-12
7.4627590369e-06
-3.30779201731e-12
7.46276288809e-06
-3.72102044491e-12
7.46276709255e-06
-4.26459536986e-12
7.46277185868e-06
-4.80475874973e-12
7.46277741534e-06
-5.44916114356e-12
7.46278382515e-06
-6.30358260723e-12
7.46279112788e-06
-7.25789505057e-12
7.46279965545e-06
-8.35276147187e-12
7.46280975247e-06
-9.82720847556e-12
7.46282175725e-06
-1.18020191484e-11
7.4628361096e-06
-1.4264421723e-11
7.46285337931e-06
-1.72093637802e-11
7.46287432512e-06
-2.07487993414e-11
7.46289987584e-06
-2.52018993135e-11
7.46293102904e-06
-3.08808954696e-11
7.46296909047e-06
-3.79562515067e-11
7.46301579902e-06
-4.66498757125e-11
7.46307322812e-06
-5.73462216513e-11
7.4631439516e-06
-7.06358322564e-11
7.46323102719e-06
-8.71197169984e-11
7.46333833234e-06
-1.07363037651e-10
7.46347102339e-06
-1.32452316564e-10
7.46363579355e-06
-1.6440150431e-10
7.46384342706e-06
-2.0748933977e-10
7.46409639832e-06
-2.53106066337e-10
7.46440807671e-06
-3.11856712245e-10
7.46479384069e-06
-3.85756350797e-10
7.46527163901e-06
-4.7772390622e-10
7.46586331625e-06
-5.91758614725e-10
7.46659590203e-06
-7.32858973122e-10
7.46750329189e-06
-9.07516976381e-10
7.46862746436e-06
-1.12408910765e-09
7.47002005904e-06
-1.39264550308e-09
7.4717454091e-06
-1.72546949674e-09
7.47388350276e-06
-2.13802690771e-09
7.4765336225e-06
-2.64985059357e-09
7.47981935175e-06
-3.28541976262e-09
7.48389440151e-06
-4.07504973421e-09
7.48895039297e-06
-5.05640899642e-09
7.4952268902e-06
-6.27695620557e-09
7.50302384018e-06
-7.79704066764e-09
7.51271744519e-06
-9.69344006639e-09
7.52478099746e-06
-1.20636458383e-08
7.53981309221e-06
-1.50325045782e-08
7.55857477317e-06
-1.87620112544e-08
7.58203885969e-06
-2.34642486891e-08
7.6114590939e-06
-2.94201938217e-08
7.64846696043e-06
-3.70078335178e-08
7.69521262495e-06
-4.67458799809e-08
7.7545810265e-06
-5.93684646281e-08
7.83054590512e-06
-7.59648634769e-08
7.92883185053e-06
-9.82858657771e-08
8.05836858812e-06
-1.29536720478e-07
8.23504444572e-06
-1.76675888056e-07
8.49233661819e-06
-2.57291569893e-07
8.91282257905e-06
-4.20485036622e-07
9.72819297538e-06
-8.15369557619e-07
1.1649496169e-05
-1.92130299872e-06
-5.19806899948e-06
1.68475648999e-05
5.01388824042e-05
1.61068138728e-05
4.41591293848e-05
1.71980938431e-05
3.7759873553e-05
1.26328400017e-05
3.26495146306e-05
8.60291225941e-06
2.89465823564e-05
5.70617740669e-06
2.63676031633e-05
3.78078976536e-06
2.4593885381e-05
2.52680846847e-06
2.33783985031e-05
1.70213475682e-06
2.254732406e-05
1.15091905768e-06
2.1981157079e-05
7.77611168344e-07
2.15978047306e-05
5.22812391908e-07
2.13405418378e-05
3.48464647961e-07
2.11699443134e-05
2.2941230891e-07
2.1058536632e-05
1.48595914142e-07
2.09871856009e-05
9.42389382139e-08
2.09426221324e-05
5.81289820664e-08
2.09157076629e-05
3.45169882243e-08
2.09002078998e-05
1.93824773025e-08
2.08919204306e-05
9.92715401867e-09
2.08880552927e-05
4.21820452059e-09
2.08867856571e-05
9.32318607434e-10
2.08869506731e-05
-8.16069867368e-10
2.08878289837e-05
-1.63034200856e-09
2.08889874755e-05
-1.89224298675e-09
2.08901808738e-05
-1.84991661056e-09
2.08912814217e-05
-1.65706282917e-09
2.08922328848e-05
-1.40568820836e-09
2.08930205618e-05
-1.14790252996e-09
2.08936521636e-05
-9.10738741268e-10
2.08941460807e-05
-7.06023563599e-10
2.08945243758e-05
-5.36766896238e-10
2.08948089211e-05
-4.01176436732e-10
2.08950195638e-05
-2.95215270239e-10
2.08951732261e-05
-2.14135849384e-10
2.08952837238e-05
-1.53211698732e-10
2.08953621081e-05
-1.08151511609e-10
2.08954169533e-05
-7.53230355895e-11
2.08954547836e-05
-5.17282078207e-11
2.08954805074e-05
-3.49928206834e-11
2.08954977243e-05
-2.32934047311e-11
2.08955089897e-05
-1.52096259428e-11
2.08955161605e-05
-9.6833109323e-12
2.08955205892e-05
-6.00845993079e-12
2.08955233149e-05
-3.61741939314e-12
2.08955248952e-05
-2.09654212547e-12
2.0895525731e-05
-1.13017346757e-12
2.089552613e-05
-5.98366529694e-13
2.08955263565e-05
-3.75844269841e-13
2.08955265163e-05
-2.90171175682e-13
2.08955266226e-05
-3.1064902005e-13
2.0895526691e-05
-3.46687605715e-13
2.0895526828e-05
-3.96334574125e-13
2.08955269913e-05
-4.90788097652e-13
2.0895527164e-05
-5.82980819586e-13
2.08955273751e-05
-6.65662585131e-13
2.08955276223e-05
-7.55979794648e-13
2.08955278831e-05
-8.34434396916e-13
2.08955281927e-05
-8.99716559787e-13
2.08955285434e-05
-9.58288540103e-13
2.08955289301e-05
-9.94828215713e-13
2.08955293843e-05
-1.02327576772e-12
2.08955298659e-05
-1.06406319577e-12
2.08955303403e-05
-1.10107083008e-12
2.0895530839e-05
-1.1405258772e-12
2.08955313608e-05
-1.19992254006e-12
2.08955318927e-05
-1.26571495969e-12
2.08955324582e-05
-1.32321197002e-12
2.08955330754e-05
-1.38129552421e-12
2.08955337297e-05
-1.45724986278e-12
2.08955344165e-05
-1.5538443482e-12
2.089553514e-05
-1.65699941982e-12
2.08955358947e-05
-1.74485201991e-12
2.08955366898e-05
-1.81854317555e-12
2.08955375193e-05
-1.90941789697e-12
2.08955383401e-05
-2.01631443484e-12
2.08955391667e-05
-2.10675819831e-12
2.08955400588e-05
-2.1886623597e-12
2.0895541002e-05
-2.27737470773e-12
2.08955419715e-05
-2.34940731489e-12
2.08955430074e-05
-2.41041614635e-12
2.08955441013e-05
-2.49127532551e-12
2.08955452178e-05
-2.5805255415e-12
2.08955463848e-05
-2.67206477964e-12
2.08955475981e-05
-2.77096574872e-12
2.08955488526e-05
-2.84604921714e-12
2.08955502154e-05
-2.90839298723e-12
2.08955516638e-05
-3.00951611984e-12
2.0895553133e-05
-3.13317235833e-12
2.08955546948e-05
-3.25938740083e-12
2.08955564176e-05
-3.4283998578e-12
2.08955582439e-05
-3.6420912572e-12
2.08955601361e-05
-3.85403572323e-12
2.0895562164e-05
-4.07417576586e-12
2.0895564366e-05
-4.34879162276e-12
2.08955667482e-05
-4.65692730274e-12
2.08955693939e-05
-4.97629025552e-12
2.08955723579e-05
-5.35453306937e-12
2.08955756837e-05
-5.81928455189e-12
2.08955794872e-05
-6.37356958163e-12
2.08955838622e-05
-7.06560011764e-12
2.08955887701e-05
-7.91417171012e-12
2.08955943402e-05
-8.91335433682e-12
2.08956009063e-05
-1.0167863804e-11
2.08956085924e-05
-1.17684198821e-11
2.08956176638e-05
-1.36638112199e-11
2.08956285771e-05
-1.59460009196e-11
2.08956417334e-05
-1.88730581429e-11
2.0895657391e-05
-2.25479704543e-11
2.08956760674e-05
-2.69114466865e-11
2.08956982731e-05
-3.19570735828e-11
2.08957249546e-05
-3.83000985349e-11
2.0895758649e-05
-4.76509352227e-11
2.08958002267e-05
-5.85391693873e-11
2.08958513363e-05
-7.17869162583e-11
2.08959143108e-05
-8.80854561816e-11
2.08959919902e-05
-1.0832178545e-10
2.08960878382e-05
-1.33475748773e-10
2.08962061737e-05
-1.64657278158e-10
2.08963523153e-05
-2.03232168858e-10
2.08965330258e-05
-2.51002922621e-10
2.08967564785e-05
-3.10244432678e-10
2.08970325366e-05
-3.83473741351e-10
2.08973736686e-05
-4.73818167816e-10
2.08977948282e-05
-5.8562028266e-10
2.08983121308e-05
-7.24630580794e-10
2.08989570657e-05
-8.97921498411e-10
2.08997581962e-05
-1.11313455162e-09
2.09007518014e-05
-1.37958836346e-09
2.09019835061e-05
-1.70940031744e-09
2.09035100341e-05
-2.11793237222e-09
2.09054013541e-05
-2.62405245591e-09
2.09077444894e-05
-3.25088528618e-09
2.0910647759e-05
-4.02742615152e-09
2.09142451106e-05
-4.98987371603e-09
2.09187026309e-05
-6.18298081495e-09
2.09242266755e-05
-7.66233627735e-09
2.09310735772e-05
-9.49726098767e-09
2.09395622847e-05
-1.17744418808e-08
2.09500898584e-05
-1.46024693057e-08
2.09631510439e-05
-1.81172927398e-08
2.09793635666e-05
-2.24894774267e-08
2.09995005977e-05
-2.79342925486e-08
2.10245324167e-05
-3.47251628129e-08
2.10556801074e-05
-4.32109391005e-08
2.10944870419e-05
-5.38392370748e-08
2.11429149567e-05
-6.7189879278e-08
2.12034733522e-05
-8.40226912816e-08
2.12794007052e-05
-1.0534744497e-07
2.13749238659e-05
-1.32530623611e-07
2.14956437373e-05
-1.67465888325e-07
2.16491411716e-05
-2.12866322015e-07
2.18459822937e-05
-2.72806265265e-07
2.21015099194e-05
-3.53813253954e-07
2.24392449383e-05
-4.67271166923e-07
2.28976764208e-05
-6.3510750698e-07
2.35440848508e-05
-9.03700530115e-07
2.45007486614e-05
-1.37714959861e-06
2.59809757172e-05
-2.29559658503e-06
2.8276487572e-05
-4.216814081e-06
-8.25880778877e-06
3.13372255599e-05
5.35844269568e-05
1.25223873496e-05
5.29166011203e-05
1.78659198439e-05
4.96393013739e-05
1.59101392189e-05
4.58382170678e-05
1.240399663e-05
4.24428748883e-05
9.101519904e-06
3.97331594186e-05
6.49050505756e-06
3.76912455171e-05
4.56872240093e-06
3.62011672267e-05
3.1922130893e-06
3.51355938947e-05
2.21649247934e-06
3.43848448281e-05
1.52836022827e-06
3.3862659236e-05
1.04499793781e-06
3.35040069415e-05
7.07117038203e-07
3.3260962885e-05
4.72456330451e-07
3.30987208643e-05
3.1083790503e-07
3.29922908814e-05
2.00668872885e-07
3.29239197417e-05
1.26500105315e-07
3.28811298863e-05
7.7306884929e-08
3.28552513375e-05
4.52610822305e-08
3.28403348633e-05
2.48436501836e-08
3.28323549409e-05
1.21980977687e-08
3.28286290695e-05
4.65817977054e-09
3.28274051553e-05
4.07854506205e-10
3.28275645898e-05
-1.78977648499e-09
3.28284106365e-05
-2.73830658232e-09
3.28295267254e-05
-2.96602168496e-09
3.28306763846e-05
-2.80672089275e-09
3.2831736524e-05
-2.46582285958e-09
3.28326530105e-05
-2.06439376518e-09
3.28334116805e-05
-1.66942884997e-09
3.28340199933e-05
-1.31433149507e-09
3.283449567e-05
-1.01240233345e-09
3.28348599385e-05
-7.65448292585e-10
3.28351339194e-05
-5.69247355727e-10
3.28353367335e-05
-4.16975263529e-10
3.28354846299e-05
-3.01116740025e-10
3.28355909506e-05
-2.14478711335e-10
3.28356663263e-05
-1.5070331263e-10
3.28357189956e-05
-1.0442291961e-10
3.28357552676e-05
-7.1283160771e-11
3.28357798869e-05
-4.78741271898e-11
3.28357963008e-05
-3.15953481158e-11
3.28358070498e-05
-2.0434498331e-11
3.28358139462e-05
-1.29135122354e-11
3.28358182701e-05
-7.94361511105e-12
3.2835820912e-05
-4.73600845713e-12
3.28358225233e-05
-2.73635286765e-12
3.28358234577e-05
-1.54335793224e-12
3.28358238833e-05
-8.4625294926e-13
3.28358240277e-05
-4.52094293833e-13
3.28358240882e-05
-3.631917756e-13
3.28358240717e-05
-3.81275199313e-13
3.28358240792e-05
-4.25048400108e-13
3.28358241236e-05
-5.17664191518e-13
3.28358241731e-05
-6.34676138922e-13
3.28358242421e-05
-7.47150337558e-13
3.28358243507e-05
-8.80026857223e-13
3.2835824477e-05
-1.00326469144e-12
3.28358246524e-05
-1.10468614389e-12
3.28358248779e-05
-1.19433575162e-12
3.2835825134e-05
-1.2659312755e-12
3.28358254355e-05
-1.31462801935e-12
3.28358257661e-05
-1.37674978047e-12
3.2835826084e-05
-1.44836258316e-12
3.28358264047e-05
-1.51178679252e-12
3.2835826744e-05
-1.57265648665e-12
3.28358270913e-05
-1.64268314216e-12
3.283582745e-05
-1.72002936262e-12
3.28358278453e-05
-1.8089629323e-12
3.28358282784e-05
-1.91322436278e-12
3.28358287436e-05
-2.02771007747e-12
3.28358292408e-05
-2.14947962835e-12
3.28358297555e-05
-2.26937587979e-12
3.2835830285e-05
-2.37442389376e-12
3.28358308404e-05
-2.48345279626e-12
3.28358313995e-05
-2.61691313114e-12
3.28358319555e-05
-2.74554872653e-12
3.28358325575e-05
-2.84503840948e-12
3.2835833213e-05
-2.93951767984e-12
3.28358338838e-05
-3.03900223491e-12
3.28358345923e-05
-3.14383139663e-12
3.28358353587e-05
-3.28276010861e-12
3.28358361504e-05
-3.44452564067e-12
3.283583698e-05
-3.58621912864e-12
3.28358378624e-05
-3.71414330299e-12
3.28358387819e-05
-3.83843908341e-12
3.28358397852e-05
-3.96235791565e-12
3.28358408896e-05
-4.13408349547e-12
3.283584204e-05
-4.35765683181e-12
3.28358432646e-05
-4.57522425999e-12
3.2835844649e-05
-4.80174138485e-12
3.2835846184e-05
-5.10246217932e-12
3.28358478085e-05
-5.47058370557e-12
3.28358495742e-05
-5.86720716562e-12
3.2835851584e-05
-6.32199851524e-12
3.28358538603e-05
-6.86793470472e-12
3.28358564449e-05
-7.49727268626e-12
3.28358594205e-05
-8.24358232143e-12
3.28358628515e-05
-9.13311509503e-12
3.28358667934e-05
-1.01425540196e-11
3.28358713032e-05
-1.13215746577e-11
3.2835876781e-05
-1.32113103596e-11
3.28358832156e-05
-1.53793272532e-11
3.28358910392e-05
-1.79773279115e-11
3.28359005684e-05
-2.11859037759e-11
3.28359120785e-05
-2.51062847808e-11
3.28359261084e-05
-2.98922617776e-11
3.28359433789e-05
-3.58443037072e-11
3.28359645174e-05
-4.33228469153e-11
3.28359904553e-05
-5.26045800474e-11
3.28360226738e-05
-6.40434261675e-11
3.28360626882e-05
-7.81795155368e-11
3.28361110566e-05
-9.57288034098e-11
3.28361704308e-05
-1.17502158275e-10
3.28362434212e-05
-1.44475242956e-10
3.28363333405e-05
-1.77847522162e-10
3.28364443284e-05
-2.19177453804e-10
3.28365813903e-05
-2.70387316649e-10
3.28367507023e-05
-3.33816784807e-10
3.28369598203e-05
-4.12291585475e-10
3.28372182954e-05
-5.09350616807e-10
3.28375380277e-05
-6.29570607098e-10
3.28379334336e-05
-7.78513267509e-10
3.28384225157e-05
-9.62852657543e-10
3.28390278537e-05
-1.19107733784e-09
3.28397772417e-05
-1.47408043723e-09
3.28407044675e-05
-1.82502290008e-09
3.28418518925e-05
-2.26048495093e-09
3.28432723531e-05
-2.80021157321e-09
3.28450312534e-05
-3.46861303859e-09
3.28472096876e-05
-4.29642162477e-09
3.28499077346e-05
-5.3219795953e-09
3.28532493128e-05
-6.59255379581e-09
3.28573884921e-05
-8.1667161338e-09
3.28625161903e-05
-1.01174495772e-08
3.28688690682e-05
-1.25355419631e-08
3.28767409238e-05
-1.55338935349e-08
3.28864965176e-05
-1.92529789232e-08
3.28985894294e-05
-2.38679127654e-08
3.29135842228e-05
-2.95977615564e-08
3.29321840311e-05
-3.671719197e-08
3.29552657362e-05
-4.55711283304e-08
3.29839252335e-05
-5.659407796e-08
3.3019535931e-05
-7.03363286743e-08
3.30638237097e-05
-8.74989649205e-08
3.31189651334e-05
-1.08980791164e-07
3.31877189062e-05
-1.35943692696e-07
3.32736022181e-05
-1.69906127745e-07
3.33811346362e-05
-2.12880050702e-07
3.35161830645e-05
-2.67578821361e-07
3.36864633077e-05
-3.37745925213e-07
3.39023001778e-05
-4.28703188139e-07
3.41778192087e-05
-5.48325410613e-07
3.45328727498e-05
-7.08866634574e-07
3.49961790762e-05
-9.30576468227e-07
3.56102187223e-05
-1.24914597104e-06
3.64377244551e-05
-1.73120534437e-06
3.75656597417e-05
-2.50508468258e-06
3.90854185592e-05
-3.81535526941e-06
4.09715536758e-05
-6.10294821819e-06
-9.99563267515e-06
4.27083778663e-05
5.35705199681e-05
8.95186723878e-06
5.55863059683e-05
1.58501343681e-05
5.524105889e-05
1.62553859462e-05
5.35976157626e-05
1.40474395859e-05
5.1542906155e-05
1.11562298334e-05
4.95819405952e-05
8.45147053994e-06
4.79262514242e-05
6.2244115962e-06
4.66200400916e-05
4.49842441608e-06
4.56322342403e-05
3.20429839939e-06
4.4906688119e-05
2.25390639821e-06
4.43854427093e-05
1.56624324113e-06
4.401783341e-05
1.07472633676e-06
4.37629128929e-05
7.27376814463e-07
4.35890454074e-05
4.847053904e-07
4.34725021923e-05
3.1721208793e-07
4.33958691863e-05
2.03133107404e-07
4.33465911866e-05
1.26584898365e-07
4.33157570897e-05
7.60952147103e-08
4.32971356689e-05
4.34651273993e-08
4.32864340857e-05
2.28997164509e-08
4.32807407805e-05
1.03515056752e-08
4.32781180412e-05
3.03059702944e-09
4.32772913579e-05
-9.63107075827e-10
4.32774558538e-05
-2.90283518186e-09
4.327810724e-05
-3.61744202012e-09
4.32789452406e-05
-3.64472854408e-09
4.3279800217e-05
-3.32077674073e-09
4.32805845716e-05
-2.84870786773e-09
4.32812603895e-05
-2.34523501743e-09
4.32818184963e-05
-1.8724593139e-09
4.32822651871e-05
-1.45908016529e-09
4.32826139434e-05
-1.11418006613e-09
4.32828806637e-05
-8.35984524593e-10
4.32830810549e-05
-6.17392341762e-10
4.32832291992e-05
-4.49303876672e-10
4.32833370888e-05
-3.22421417688e-10
4.3283414564e-05
-2.28211910705e-10
4.32834694086e-05
-1.59312760912e-10
4.32835076828e-05
-1.09610069301e-10
4.32835340192e-05
-7.42389438452e-11
4.32835518678e-05
-4.94272199628e-11
4.32835637445e-05
-3.22911584737e-11
4.32835714833e-05
-2.06336927709e-11
4.32835764166e-05
-1.2845134669e-11
4.32835794526e-05
-7.75540645234e-12
4.32835812539e-05
-4.51435972471e-12
4.32835822573e-05
-2.53757372276e-12
4.32835827648e-05
-1.39992097521e-12
4.32835830412e-05
-7.81651922127e-13
4.32835831686e-05
-4.9994251333e-13
4.32835831773e-05
-4.30974845521e-13
4.32835831359e-05
-4.36369538843e-13
4.32835831029e-05
-5.12007241681e-13
4.32835830537e-05
-6.24319822843e-13
4.32835830017e-05
-7.5030291933e-13
4.32835829589e-05
-8.83264334214e-13
4.32835829099e-05
-1.00634996258e-12
4.32835828865e-05
-1.11082423648e-12
4.32835829064e-05
-1.20654321632e-12
4.32835829403e-05
-1.29043086896e-12
4.32835829985e-05
-1.35361445716e-12
4.3283583081e-05
-1.4172411067e-12
4.32835831502e-05
-1.49581470522e-12
4.32835832033e-05
-1.57671523344e-12
4.32835832575e-05
-1.64738150897e-12
4.32835833104e-05
-1.72076819875e-12
4.32835833687e-05
-1.81683781255e-12
4.32835834466e-05
-1.93027294197e-12
4.3283583544e-05
-2.05220786374e-12
4.32835836583e-05
-2.17143702327e-12
4.32835837972e-05
-2.28839418262e-12
4.3283583947e-05
-2.41632058769e-12
4.32835840854e-05
-2.55078090017e-12
4.32835842273e-05
-2.6820161739e-12
4.32835843765e-05
-2.81826310396e-12
4.3283584516e-05
-2.95148137689e-12
4.32835846705e-05
-3.06022076738e-12
4.32835848612e-05
-3.16205013176e-12
4.32835850525e-05
-3.27977984017e-12
4.32835852509e-05
-3.41024360108e-12
4.32835855009e-05
-3.57161290244e-12
4.32835857886e-05
-3.76472262817e-12
4.32835861065e-05
-3.9277319659e-12
4.32835864692e-05
-4.05217582035e-12
4.32835868509e-05
-4.19638977812e-12
4.32835872711e-05
-4.38205674651e-12
4.32835877868e-05
-4.6245285857e-12
4.32835883857e-05
-4.93004629193e-12
4.32835890658e-05
-5.2630460213e-12
4.32835898987e-05
-5.62933319885e-12
4.32835909107e-05
-6.08074742065e-12
4.32835920564e-05
-6.62954823346e-12
4.32835933583e-05
-7.22878424018e-12
4.32835949221e-05
-7.89521968097e-12
4.32835968069e-05
-8.72025492807e-12
4.32835990646e-05
-9.7351316938e-12
4.32836018078e-05
-1.0947259453e-11
4.3283605171e-05
-1.24150703776e-11
4.32836093135e-05
-1.41970715468e-11
4.32836144923e-05
-1.63683580327e-11
4.32836205407e-05
-1.90811605787e-11
4.32836277159e-05
-2.24590863042e-11
4.32836364402e-05
-2.65658287497e-11
4.32836471568e-05
-3.16467241455e-11
4.32836602399e-05
-3.79718135968e-11
4.32836762179e-05
-4.57679062295e-11
4.32836958798e-05
-5.53534394627e-11
4.32837200566e-05
-6.72541262188e-11
4.3283749717e-05
-8.20416961915e-11
4.32837861449e-05
-1.00335759542e-10
4.32838310238e-05
-1.22980496341e-10
4.32838865154e-05
-1.51069833937e-10
4.3283955108e-05
-1.8580297973e-10
4.32840397312e-05
-2.2881117452e-10
4.32841441637e-05
-2.82069167344e-10
4.32842732151e-05
-3.48015735543e-10
4.3284432752e-05
-4.29682677202e-10
4.32846300239e-05
-5.30805487868e-10
4.328487386e-05
-6.55980896729e-10
4.32851752858e-05
-8.10825881512e-10
4.32855482311e-05
-1.00243582154e-09
4.32860097158e-05
-1.23976187487e-09
4.32865807667e-05
-1.53372776103e-09
4.32872874842e-05
-1.8978367655e-09
4.32881621884e-05
-2.34894233927e-09
4.32892450209e-05
-2.90787533078e-09
4.32905853992e-05
-3.60069257997e-09
4.32922446542e-05
-4.45924856842e-09
4.32942987384e-05
-5.52274550612e-09
4.32968420248e-05
-6.83986303315e-09
4.32999913372e-05
-8.47131829992e-09
4.33038911748e-05
-1.04924354986e-08
4.33087208636e-05
-1.29965010448e-08
4.33147026756e-05
-1.60993692761e-08
4.33221121549e-05
-1.99450748903e-08
4.33312912827e-05
-2.47128622926e-08
4.33426643834e-05
-3.0625905992e-08
4.33567584722e-05
-3.79621561709e-08
4.33742288535e-05
-4.70685587383e-08
4.33958909519e-05
-5.83795182341e-08
4.34227603324e-05
-7.2440321858e-08
4.34561035305e-05
-8.99371162862e-08
4.34975036918e-05
-1.11736677468e-07
4.35489444451e-05
-1.38940002672e-07
4.36129179387e-05
-1.72954458616e-07
4.36925670971e-05
-2.15592715741e-07
4.37918732696e-05
-2.69212120592e-07
4.39159092743e-05
-3.36916246171e-07
4.40711860885e-05
-4.22855778917e-07
4.42661333855e-05
-5.3269311053e-07
4.45117789757e-05
-6.74348525633e-07
4.48227085502e-05
-8.59255047361e-07
4.52183935886e-05
-1.10455215163e-06
4.5724857486e-05
-1.43704044027e-06
4.63761194501e-05
-1.90040759765e-06
4.72131256627e-05
-2.56821101276e-06
4.82732232359e-05
-3.56518193586e-06
4.95523465074e-05
-5.09447883441e-06
5.09006390965e-05
-7.45123935265e-06
-1.09273504735e-05
5.18323569878e-05
5.27606082204e-05
6.19125859913e-06
5.57402408265e-05
1.28705023755e-05
5.73124121284e-05
1.46832146142e-05
5.76111978318e-05
1.37486535768e-05
5.7133868757e-05
1.16335591594e-05
5.63199842593e-05
9.26535504126e-06
5.54496452243e-05
7.09475069161e-06
5.46637031911e-05
5.28436642682e-06
5.40144133553e-05
3.85358821088e-06
5.35068428655e-05
2.7614769349e-06
5.3124878357e-05
1.94820767493e-06
5.28455243673e-05
1.3540802944e-06
5.26458881906e-05
9.27012955976e-07
5.25060755651e-05
6.24517994625e-07
5.2409997934e-05
4.13289724117e-07
5.23452164257e-05
2.67914642291e-07
5.23024114984e-05
1.69389859187e-07
5.22747666335e-05
1.03740103271e-07
5.22573944802e-05
6.08373158758e-08
5.22468524403e-05
3.34417867368e-08
5.22407561994e-05
1.64477716707e-08
5.22374832081e-05
6.30361326527e-09
5.22359419817e-05
5.78137504186e-10
5.22354266836e-05
-2.38754374715e-09
5.22354786108e-05
-3.66940873797e-09
5.22358134609e-05
-3.9796313254e-09
5.22362607445e-05
-3.76809299941e-09
5.22367236185e-05
-3.31156705123e-09
5.22371514918e-05
-2.77309046913e-09
5.22375219173e-05
-2.24292179552e-09
5.22378288787e-05
-1.76607623799e-09
5.22380752059e-05
-1.36049063175e-09
5.22382679246e-05
-1.02866314616e-09
5.22384155758e-05
-7.65007060815e-10
5.22385266528e-05
-5.60378752946e-10
5.22386088587e-05
-4.04655233155e-10
5.22386688072e-05
-2.88173725075e-10
5.22387119091e-05
-2.0239938072e-10
5.22387424536e-05
-1.40149429425e-10
5.2238763798e-05
-9.55903182429e-11
5.22387785016e-05
-6.41403438167e-11
5.22387884784e-05
-4.22696982712e-11
5.22387951235e-05
-2.72862499585e-11
5.22387994717e-05
-1.71974886043e-11
5.22388022448e-05
-1.05462237356e-11
5.22388039837e-05
-6.26998149046e-12
5.22388050458e-05
-3.61233350086e-12
5.22388056264e-05
-2.02240724565e-12
5.22388058668e-05
-1.09378309419e-12
5.22388059268e-05
-5.84906406929e-13
5.22388058595e-05
-3.65894508524e-13
5.22388057292e-05
-3.17399675412e-13
5.22388055952e-05
-3.73923383446e-13
5.22388054728e-05
-4.96587285427e-13
5.22388053528e-05
-6.42781192425e-13
5.22388052455e-05
-7.84876903984e-13
5.22388051422e-05
-9.16979778928e-13
5.22388050474e-05
-1.02357025358e-12
5.22388049812e-05
-1.11635678059e-12
5.22388049293e-05
-1.21197835864e-12
5.22388048813e-05
-1.29444685337e-12
5.22388048442e-05
-1.36256501192e-12
5.22388047978e-05
-1.43857905103e-12
5.2238804714e-05
-1.52249023469e-12
5.22388046034e-05
-1.60669169633e-12
5.22388044912e-05
-1.69715975535e-12
5.22388043816e-05
-1.79802672898e-12
5.22388042805e-05
-1.90734692049e-12
5.22388041938e-05
-2.02702172846e-12
5.22388041174e-05
-2.14356253119e-12
5.2238804055e-05
-2.24332090871e-12
5.22388040038e-05
-2.3450935984e-12
5.22388039385e-05
-2.46589009796e-12
5.22388038583e-05
-2.59254370931e-12
5.22388037837e-05
-2.72061953051e-12
5.22388037024e-05
-2.8510759911e-12
5.22388036057e-05
-2.97071272101e-12
5.22388035225e-05
-3.09466029679e-12
5.22388034527e-05
-3.25028402478e-12
5.22388033826e-05
-3.41778856692e-12
5.22388033322e-05
-3.58610683562e-12
5.22388032905e-05
-3.77378755697e-12
5.22388032554e-05
-3.95883161935e-12
5.22388032742e-05
-4.13122269642e-12
5.22388033355e-05
-4.33298578254e-12
5.22388033988e-05
-4.57202677046e-12
5.22388034971e-05
-4.84055813972e-12
5.22388036786e-05
-5.16302189314e-12
5.22388039472e-05
-5.54209317116e-12
5.22388043148e-05
-5.98157085889e-12
5.22388048268e-05
-6.53230198731e-12
5.22388054922e-05
-7.2217423609e-12
5.22388063215e-05
-8.01405571016e-12
5.22388073916e-05
-8.9128822731e-12
5.22388087644e-05
-1.0007740667e-11
5.2238810479e-05
-1.13641886582e-11
5.22388126462e-05
-1.30092665985e-11
5.22388153924e-05
-1.5005140582e-11
5.22388187923e-05
-1.74517107845e-11
5.22388230177e-05
-2.04830888954e-11
5.22388283482e-05
-2.42896396138e-11
5.22388349295e-05
-2.89803127804e-11
5.22388430934e-05
-3.46960090168e-11
5.22388533402e-05
-4.17524486823e-11
5.22388660985e-05
-5.05320861282e-11
5.22388819001e-05
-6.14081591452e-11
5.22389015126e-05
-7.4811772606e-11
5.22389258415e-05
-9.13893107666e-11
5.2238955966e-05
-1.11953779575e-10
5.2238993257e-05
-1.3743044477e-10
5.22390393848e-05
-1.68924104106e-10
5.22390963985e-05
-2.07872723495e-10
5.22391669067e-05
-2.56059895699e-10
5.2239254045e-05
-3.15749815188e-10
5.22393617519e-05
-3.89665517628e-10
5.22394950011e-05
-4.81146300494e-10
5.22396598898e-05
-5.94368247635e-10
5.22398639694e-05
-7.34532721808e-10
5.22401164491e-05
-9.0809398185e-10
5.22404287178e-05
-1.12295664076e-09
5.22408151414e-05
-1.38887112148e-09
5.22412934843e-05
-1.71805379992e-09
5.22418856382e-05
-2.12571907336e-09
5.22426186594e-05
-2.63067543756e-09
5.22435259572e-05
-3.25622511023e-09
5.22446491014e-05
-4.03113552197e-09
5.22460394232e-05
-4.99110343359e-09
5.22477605954e-05
-6.18029284529e-09
5.22498913334e-05
-7.65333803822e-09
5.22525292681e-05
-9.47780110066e-09
5.22557954407e-05
-1.17375299786e-08
5.22598396409e-05
-1.45366426192e-08
5.22648475491e-05
-1.80043264655e-08
5.22710491623e-05
-2.23009214827e-08
5.22787294064e-05
-2.76254788773e-08
5.22882417326e-05
-3.42254224565e-08
5.23000244959e-05
-4.24087830423e-08
5.23146214425e-05
-5.2559200129e-08
5.23327075038e-05
-6.5154927682e-08
5.23551210621e-05
-8.0793521848e-08
5.23829043047e-05
-1.00223726643e-07
5.24173534968e-05
-1.24386178932e-07
5.2460083031e-05
-1.54466186728e-07
5.25131066921e-05
-1.91963888232e-07
5.25789404442e-05
-2.38788553327e-07
5.26607343957e-05
-2.97386620303e-07
5.27624414675e-05
-3.70918689008e-07
5.28890354135e-05
-4.63509927945e-07
5.30467936433e-05
-5.80614163651e-07
5.32436592076e-05
-7.29558729587e-07
5.34896933733e-05
-9.20382182802e-07
5.37976014201e-05
-1.16716234907e-06
5.41832243648e-05
-1.49017471704e-06
5.4665626031e-05