/*--------------------------------*- C++ -*----------------------------------*\
| =========                 |                                                 |
| \\      /  F ield         | OpenFOAM: The Open Source CFD Toolbox           |
|  \\    /   O peration     | Version:  2106                                  |
|   \\  /    A nd           | Website:  www.openfoam.com                      |
|    \\/     M anipulation  |                                                 |
\*---------------------------------------------------------------------------*/
FoamFile
{
    version     2.0;
    format      ascii;
    arch        "LSB;label=32;scalar=64";
    class       volScalarField;
    location    "0.08";
    object      p;
}
// * * * * * * * * * * * * * * * * * * * * * * * * * * * * * * * * * * * * * //

dimensions      [0 2 -2 0 0 0 0];

internalField   nonuniform List<scalar> 
11200
(
145.607497134
142.678894736
141.565042805
141.03771041
140.670380057
140.375602351
140.113961289
139.865428289
139.620918455
139.375862057
139.127561417
138.874260851
138.614726975
138.348022508
138.073378652
137.790119773
137.497617346
137.195262428
136.882458089
136.558633031
136.223135553
135.875318926
135.514534576
135.140114609
134.751374618
134.347614654
133.928119729
133.492160572
133.038994331
132.567865169
132.078004813
131.568633066
131.038958104
130.488176441
129.915473639
129.32002556
128.700998461
128.057548734
127.388823416
126.693960659
125.972090282
125.222334265
124.443806985
123.635615108
122.796857292
121.926623809
121.023996131
120.088046329
119.117836046
118.112414888
117.070818195
115.992064157
114.875150175
113.719048226
112.522698838
111.28500322
110.00481318
108.680918435
107.312030802
105.896764403
104.433610722
102.920907038
101.356796161
99.7391771297
98.0656401517
96.333380151
94.5390867455
92.6787999583
90.7477161201
88.7399216279
86.6480302996
84.4626904247
82.1717009798
79.7588936451
77.202215638
74.4700762874
71.5149961796
68.2647108065
64.5669795718
59.8077631663
143.814455512
142.456280772
141.66530818
141.165292416
140.774302869
140.450419786
140.165899474
139.901299918
139.645816908
139.393301964
139.139927345
138.883178706
138.621317998
138.353067558
138.077425662
137.793556211
137.500720837
137.198236365
136.88544187
136.561659874
136.226238655
135.878536464
135.517901139
135.143651624
134.755095779
134.351529151
133.932233688
133.496478039
133.04351795
132.572596556
132.082944584
131.573780377
131.044309955
130.493731164
129.921233624
129.325994191
128.707179017
128.063944234
127.395436765
126.700794788
125.979148297
125.229619586
124.451323421
123.643366912
122.80484924
121.93486137
121.03248573
120.096795644
119.126854316
118.121713254
117.080410123
116.001966017
114.885382009
113.729634699
112.533670363
111.296397286
110.016676
108.693307043
107.325015724
105.910433047
104.448071897
102.936297055
101.373285333
99.7569743664
98.0849968229
96.3546093438
94.5625969059
92.7051223798
90.7775466925
88.7741856751
86.6879705834
84.5099432805
82.2285630499
79.8286958351
77.2899528128
74.5838391046
71.6695635951
68.489240556
64.9399558832
60.8257128873
142.81926509
142.16506404
141.612707086
141.175087616
140.803461957
140.481358725
140.192258249
139.922025055
139.661564389
139.405087357
139.14870867
138.889746059
138.626286701
138.356902647
138.080471638
137.796063662
137.502867468
137.20014267
136.887189655
136.56333693
136.227945964
135.880272908
135.51968656
135.145501483
134.757019181
134.353531601
133.934318843
133.498648711
133.045776777
132.57494653
132.085389666
131.576326668
131.046967424
130.496507402
129.924127029
129.329003506
128.710304571
128.067187592
127.398800563
126.704282608
125.982764676
125.233370083
124.455214694
123.647406855
122.809047235
121.939228673
121.037035945
120.101545276
119.131823387
118.126926042
117.085896108
116.007761101
114.891530037
113.736189305
112.540697136
111.303976369
110.024905273
108.702306096
107.334930928
105.921443931
104.460398508
102.950208236
101.389109852
99.7751301393
98.1060334365
96.379228821
94.5916734549
92.7397680624
90.8191981343
88.8247246722
86.7498972434
84.5866515026
82.3248905068
79.9516903249
77.4503172244
74.7988841975
71.9693545859
68.9299831618
65.6446298394
62.0898896175
142.269503483
141.906121519
141.506222161
141.137229693
140.799610467
140.491505361
140.20613969
139.935434141
139.673061599
139.414395128
139.156016523
138.89539385
138.630626692
138.360246972
138.083077573
137.79813468
137.504560494
137.201577386
136.88845667
136.564493586
136.228991944
135.881327328
135.520760882
135.146601897
134.758154779
134.354709266
133.935543065
133.499922184
133.047100765
132.576321043
132.086813382
131.577796387
131.048477586
130.498055525
129.925721358
129.330651753
128.712016612
128.068970028
127.400659432
126.706224234
125.98479608
125.235499389
124.457451521
123.649762711
122.811536002
121.941867206
121.039844745
120.104549225
119.135052608
118.130417039
117.089693213
116.01191826
114.896113008
113.741278277
112.546389888
111.310392207
110.032190137
108.710639213
107.344532913
105.932586415
104.473417222
102.965526965
101.407258134
99.7967529325
98.1319070268
96.4103204179
94.629217359
92.7853456461
90.8748520057
88.8931260975
86.8346098288
84.6925704924
82.4587708658
80.1231588568
77.6736274799
75.096046365
72.375613395
69.5025360761
66.4803295026
63.3460224859
141.935455054
141.703658996
141.402245225
141.091265967
140.786423547
140.494396825
140.215417898
139.946288834
139.683326266
139.423240156
139.163270035
138.901178237
138.635171817
138.36380104
138.085868305
137.800355496
137.506368671
137.203097349
136.889785113
136.565707922
136.230160365
135.882446019
135.521862908
135.147715447
134.759297409
134.355893025
133.936776888
133.501213076
133.048454596
132.577743136
132.088309229
131.579372516
131.050141848
130.499815069
129.927578902
129.33260929
128.714069225
128.071118801
127.402906818
126.708575586
125.987259273
125.238084578
124.460171115
123.652631644
122.814572273
121.945092561
121.043285417
120.108237094
119.139026536
118.134724235
117.094391119
116.017076933
114.90181798
113.74763396
112.553523694
111.31845955
110.0413803
108.721181496
107.356705007
105.946727666
104.489949874
102.984962088
101.430223684
99.8240416306
98.1645226563
96.4495249006
94.6766004989
92.8429271214
90.9452248737
88.9796589698
86.9417314591
84.8261750232
82.6268765856
80.3369092779
77.9488390173
75.4556361047
72.8530760362
70.1455750143
67.354495496
64.5305606174
141.7320621
141.556159547
141.314963473
141.047635524
140.770445596
140.49380376
140.222110229
139.955604749
139.692836
139.431824042
139.170533979
138.907098614
138.63989215
138.367523192
138.088798021
137.802677866
137.508239454
137.204642146
136.891102155
136.566872835
136.231229994
135.883460012
135.5228545
135.148707255
134.760305211
134.35692821
133.937847647
133.502325288
133.049612535
132.578949997
132.089567192
131.58068257
131.051503866
130.501228417
129.929043296
129.334126368
128.715646859
128.072765373
127.404634866
126.710396537
125.989184447
125.240126258
124.462343932
123.65495338
122.817064576
121.947781817
121.046203914
120.111423843
119.14252852
118.138598498
117.098707019
116.021918828
114.907288463
113.753857724
112.560652243
111.326677199
110.050912397
108.732306853
107.369769049
105.962157647
104.508253796
103.006761336
101.456296943
99.8553459945
98.2022410848
96.4951320994
94.7319480546
92.9103553313
91.0277142125
89.0810390776
87.0669737375
84.9818055968
82.8215673684
80.582315985
78.2607642839
75.855559784
73.3697764312
70.8155972633
68.2200406159
65.6303345157
141.608944953
141.453336907
141.247033868
141.010469705
140.754991763
140.491709019
140.227092263
139.963580081
139.701443452
139.439854688
139.177479795
138.912842158
138.644511701
138.371179353
138.09167216
137.804941531
137.510041374
137.206104689
136.89232243
136.56792586
136.232172677
135.884336549
135.523697852
135.149540081
134.7611438
134.357784428
133.93873013
133.503240371
133.050564952
132.579943423
132.090604804
131.581767614
131.052640078
130.502420444
129.930297622
129.335450631
128.717048789
128.074252147
127.406209838
126.712064733
125.990956384
125.242016458
124.464369773
123.657135589
122.819428117
121.950356873
121.049026966
120.11453924
119.145990247
118.142471849
117.103071431
116.026871179
114.912946877
113.760366144
112.568186054
111.335450076
110.061183918
108.744390354
107.384043122
105.979083908
104.528408856
103.030860594
101.485210467
99.8901461029
98.2442556324
96.5460097942
94.7937443315
92.985645771
91.119745183
89.1939292864
87.2059856291
85.1537096263
83.0351263763
80.8489098576
78.595139964
76.276594642
73.9008605748
71.4836069346
69.0518226049
66.6450350163
141.534865047
141.384854574
141.198097807
140.98199049
140.742281813
140.489457459
140.23081698
139.970075394
139.708705469
139.446780946
139.183560991
138.917922049
138.64862329
138.374442937
138.094236706
137.806953784
137.51163159
137.207381722
136.89337371
136.568819664
136.232961214
135.885059012
135.524383461
135.150210125
134.761813731
134.358465502
133.939430609
133.503966421
133.051321309
132.580733925
132.091432861
131.582636604
131.053553642
130.503382567
129.931312214
129.336521676
128.718180308
128.075448758
127.407481494
126.71342642
125.992421179
125.243599152
124.466088604
123.659012901
122.821491134
121.952638672
121.051567629
120.117387265
119.149204446
118.146124239
117.107249685
116.031681847
114.918519388
113.766857655
112.57578743
111.344393443
110.071752578
108.75693191
107.398981965
105.996937877
104.549807856
103.056571077
101.516173226
99.9275179614
98.2894611133
96.6008074857
94.8603119621
93.0666894029
91.2186399774
89.3149012356
87.3543448966
85.3361440244
83.260063431
81.126930468
78.9393821451
76.7029903135
74.4278534317
72.1306751787
69.8362722441
67.576830946
141.492588601
141.34314061
141.166723955
140.962983924
140.7334488
140.487737512
140.233374381
139.974732846
139.714023086
139.451926195
139.188126262
138.921765265
138.651751331
138.37693525
138.096199517
137.808495005
137.512848657
137.208356955
136.894173733
136.5694968
136.23355559
135.885600699
135.524894999
135.150707978
134.76231009
134.358969312
133.939948524
133.504503504
133.051881563
132.581320724
132.092049311
131.583285822
131.054238971
130.504107721
129.932081369
129.337339771
128.719053885
128.076386704
127.408493099
126.714520525
125.993611385
125.244902213
124.467524573
123.660605962
122.823270584
121.954640035
121.053833985
120.119970899
119.152168832
118.149546255
117.1112228
116.036319772
114.923960355
113.773269652
112.583374661
111.353404159
110.082488336
108.769757619
107.414343782
106.015376648
104.571986535
103.083299519
101.548440053
99.9665317515
98.3367017635
96.6580901488
94.9298668567
93.1512615961
91.3216136787
89.4404527905
87.5076295797
85.523517084
83.4893267418
81.407570418
79.2827269259
77.1221430899
74.9371475232
72.7442675989
70.5656962663
68.4277901406
141.473312226
141.323434067
141.151470037
140.953532733
140.728968928
140.486846937
140.234708666
139.977196637
139.716866602
139.454702766
139.190609815
138.923871825
138.653478838
138.378322804
138.097302307
137.809370244
137.513548581
137.208926019
136.894648101
136.569904981
136.233919524
135.885936949
135.525216062
135.151022999
134.762626033
134.359291432
133.940280895
133.504849403
133.052243774
132.581701836
132.092451968
131.583712881
131.054693682
130.504593855
129.932603383
129.337903037
128.719664871
128.077052799
127.409223395
126.715327158
125.994508477
125.245906688
124.468656983
123.661891291
122.824739163
121.95632863
121.055787133
120.122242598
119.154824673
118.15266603
117.114903555
116.040679398
114.929141946
113.779446868
112.59075832
111.362250305
110.093108097
108.782529543
107.429728341
106.033932173
104.594395274
103.110386779
101.581210955
100.006211233
98.3847822567
96.7163902313
95.0006027861
93.237134178
91.4259113686
89.5671715174
87.6616156564
85.7106198804
83.7165515939
81.6831842289
79.6162604046
77.524183462
75.4187639841
73.3158803965
71.2353771808
69.1993583268
141.473315028
141.323450331
141.151497207
140.953569082
140.729013702
140.48689933
140.234767801
139.977261708
139.716936908
139.454777705
139.190688883
138.923954615
138.653565043
138.378412227
138.097394829
137.80946582
137.513647243
137.209027874
136.894753312
136.57001375
136.234032084
135.886053564
135.525337109
135.15114896
134.762757522
134.359429234
133.940425961
133.505002862
133.052406978
132.581876395
132.09263985
131.583916614
131.054916333
130.504839071
129.932875464
129.338207105
128.720007156
128.077441112
127.409667527
126.715838756
125.995101672
125.246598651
124.469468569
123.662847825
122.82587136
121.957673702
121.057390171
120.124158314
119.157119549
118.15542089
117.118216606
116.044669862
114.933954477
113.785256992
112.597779077
111.370740273
110.103381025
108.794966198
107.444790098
106.05217795
104.616499055
103.137177684
101.613687679
100.04558234
98.4325104666
96.7742436722
95.0707168746
93.322082921
91.5287907325
89.6917215011
87.8123684239
85.8928469965
83.936384085
81.9476444709
79.9331769447
77.9019389377
75.8658022287
73.8399078756
71.8423132398
69.8922818619
141.492597048
141.343189772
141.166806074
140.963093726
140.733583989
140.487895484
140.233552442
139.974928589
139.714234424
139.452151329
139.188363696
138.922013807
138.652010091
138.377203627
138.096477158
137.808781782
137.513144664
137.208662501
136.8944893
136.569823001
136.233893115
135.885950322
135.52525785
135.151085482
134.76270407
134.359382076
133.940382873
133.50496275
133.052369663
132.581842518
132.092610816
131.583894502
131.054903875
130.504839649
129.932893198
129.33824705
128.72007556
128.077545676
127.409817664
126.716045903
125.995379758
125.246964616
124.469943005
123.663455737
122.826643059
121.958645899
121.058607353
120.125674487
119.159000356
118.157746113
117.121083122
116.048195188
114.938281123
113.790557774
112.604263567
111.37866255
110.113048989
108.80675288
107.459146866
106.069652518
104.637751536
103.163000915
101.645048477
100.083648282
98.4786914244
96.8302449652
95.1385856854
93.4042630757
91.6281899519
89.8117237539
87.956789155
86.0662691671
84.1440527277
82.1954007544
80.2273422376
78.249083304
76.2723758456
74.3117412264
72.3840496051
70.5069225637
141.534879294
141.384937735
141.198236521
140.98217561
140.742509305
140.489722793
140.23111554
139.970403116
139.709058854
139.447157015
139.183957297
138.918336671
138.649054812
138.374890389
138.094699511
137.807431724
137.512124802
137.207890692
136.893899227
136.569362772
136.23352309
135.885640844
135.524987075
135.150837894
134.762468663
134.359151364
133.940151971
133.504728713
133.052131051
132.581599109
132.092363404
131.58364472
131.054654086
130.50459291
129.932653339
129.338018854
128.719864997
128.077360121
127.409666137
126.715939367
125.995331552
125.246991001
124.470063792
123.663694991
122.827029936
121.959215697
121.059402869
120.126747711
119.1604145
118.159577972
117.123425881
116.051161832
114.942008608
113.795212117
112.610045962
111.38581669
110.12186987
108.817597401
107.472446521
106.085930442
104.657640766
103.187262637
101.674597257
100.119582068
98.5223207654
96.8831187156
95.2025455981
93.4814983561
91.7212755017
89.9236871638
88.0911828221
86.227036561
84.3355579489
82.4223666594
80.4947069238
78.5617883321
76.6351132816
74.7287281886
72.8589093272
71.0427590703
141.608965314
141.453456169
141.24723223
141.010733563
140.755315022
140.492084984
140.227514238
139.964042256
139.701940896
139.440383273
139.178036195
138.913423806
138.645116721
138.371806451
138.092320541
137.805610862
137.510731785
137.206816773
136.893057198
136.568684709
136.232957278
135.885148671
135.524539996
135.150415547
134.762056655
134.358739762
133.939734132
133.504300453
133.05169006
132.581144546
132.091895584
131.583164876
131.05416421
130.504095696
129.932152246
129.337518238
128.719370315
128.076878173
127.409205327
126.715509967
125.994946085
125.246664707
124.46981518
123.663546515
122.827008813
121.959354915
121.059742479
120.127336415
119.161311521
118.160855226
117.125170584
116.053479689
114.945027722
113.799087696
112.61496594
111.392008397
110.12960803
108.827213766
107.484341218
106.100585537
104.675636999
103.20929923
101.701511194
100.152374783
98.5621894602
96.9314933435
95.2611130895
93.5522281799
91.8064516576
90.0259298171
88.2134623716
86.3726513754
84.5080779327
82.6255221964
80.7322241771
78.8371866329
76.9515260651
75.0888837789
73.2653925379
71.4986430976
141.73208917
141.556318549
141.315226646
141.047983897
140.770870526
140.494296054
140.22266093
139.95620624
139.693481923
139.432509177
139.171254201
138.907850805
138.640674052
138.368333244
138.089635235
137.803541769
137.509130076
137.205559999
136.892048132
136.567848164
136.232236243
135.88450048
135.523934162
135.149829446
134.761474483
134.358150608
133.939130631
133.503677888
133.051045713
132.580477228
132.091205281
131.582452476
131.053431347
130.503344727
129.931386298
129.336741252
128.718587071
128.076094472
127.408428384
126.714748871
125.994212178
125.24597194
124.469180571
123.662990604
122.826556354
121.959035823
121.05959308
120.12740092
119.161643695
118.161520328
117.12624772
116.055064687
114.947236632
113.802061008
112.618873622
111.397055971
110.136043868
108.835337696
107.494514793
106.113244164
104.691303838
103.228601419
101.725198831
100.181341831
98.5974960428
96.9743903654
95.3130692155
93.6149543314
91.8819183789
90.1163729289
88.3213714602
86.5007322326
84.6591752564
82.8024875623
80.9377265911
79.0734831883
77.2202764138
75.3912157425
73.6024119461
71.872678637
141.935489426
141.703862514
141.402579634
141.091705832
140.786956981
140.495011697
140.216102822
139.947034359
139.684124666
139.424085224
139.164156964
138.902103488
138.636132887
138.364796261
138.086896683
137.801416648
137.507462791
137.204225069
136.890947337
136.566906421
136.231397122
135.883722459
135.523186957
135.149091037
134.760729476
134.357388342
133.938343913
133.502862102
133.050198162
132.579596626
132.090291372
131.581505776
131.052453022
130.502336633
129.930351112
129.335682673
128.717509955
128.075004728
127.407332795
126.713655167
125.99312932
125.244911314
124.468156245
123.662019815
122.825660448
121.9582409
121.058930947
120.126910284
119.161371598
118.161523858
117.126596127
116.055841898
114.948544328
113.804022328
112.621637519
111.40080198
110.140987816
108.841739797
107.502688476
106.123566336
104.704226799
103.244666597
101.745052326
100.205751893
98.6273717712
97.0108007401
95.3572613625
93.6683696402
91.9462031497
90.1933779858
88.4131332633
86.6094241539
84.7870185436
82.9516036769
81.109916078
79.2699270107
77.4412266223
75.6359427447
73.869600458
72.1620758375
142.269545126
141.906373144
141.506630236
141.137761378
140.800249924
140.49223703
140.206949639
139.936311149
139.673996663
139.415381158
139.157048157
138.89646724
138.631739238
138.361397096
138.084264612
137.799358952
137.505823463
137.202881684
136.889806127
136.565897244
136.230467825
135.882835175
135.522313161
135.148210983
134.759829297
134.356458474
133.937377953
133.501856003
133.049149661
132.57850468
132.089155672
131.580326532
131.051230839
130.501072321
129.929045711
129.334337752
128.716127988
128.073589495
127.405890256
126.712192416
125.991655708
125.243437475
124.466694851
123.660586188
122.82427247
121.956920148
121.057703747
120.125808837
119.160435297
118.160800175
117.126142419
116.055727542
114.948853222
113.804855804
112.623117871
111.403077436
110.144238479
108.846182402
107.508583559
106.131226647
104.714026875
103.257053616
101.760558302
100.225007137
98.651119323
97.0399112554
95.3927472786
93.7113965267
91.9980953079
90.255614037
88.4873259101
86.6972738397
84.8902272237
83.0717259958
81.2481151948
79.4265776107
77.6153551937
75.8247389129
74.0678562639
72.3631485867
142.819318784
142.16537786
141.613198757
141.175716355
140.804208257
140.482203714
140.193185725
139.92302227
139.662621233
139.406195909
139.149862919
138.890941591
138.627520323
138.358172043
138.081775188
137.797400541
137.504238248
137.20155064
136.888641009
136.564833275
136.229457507
135.881840122
135.521310759
135.147185032
134.758768374
134.355354842
133.936226517
133.500653612
133.047894616
132.577196532
132.087794891
131.578914196
131.049768611
130.499562526
129.927491107
129.33274047
128.714489826
128.071912981
127.404177182
126.710446814
125.989882743
125.241644118
124.464889852
123.658780285
122.822479157
121.955156088
121.055989356
120.124168909
119.158899533
118.159405221
117.124932848
116.054757403
114.948187972
113.804574602
112.623316139
111.403869324
110.145761262
108.848601701
107.512098643
106.136076603
104.720497824
103.265487068
101.771360584
100.238659785
98.6681899692
97.0610644571
95.4187543027
93.7431423051
92.0365810688
90.3019550157
88.5427359751
86.7630313565
84.9676098538
83.1618929882
81.3518844207
79.5439432031
77.7446637795
75.9614710479
74.2013196567
72.4723281403
143.814556654
142.456740048
141.665992352
141.166148765
140.775308472
140.451553953
140.167145131
139.90264376
139.647248403
139.394812833
139.141511197
138.884830607
138.623033914
138.354843768
138.079258191
137.795440347
137.502650411
137.200202621
136.88743812
136.563700947
136.228334435
135.880708717
135.520151333
135.145983625
134.757516129
134.354046186
133.934858023
133.499222893
133.046397968
132.575630309
132.086157302
131.577203971
131.047984603
130.497703744
129.925557177
129.330733408
128.712413093
128.069769301
127.401970363
126.708180561
125.987561366
125.239272778
124.462474774
123.656328994
122.820000833
121.952662015
121.053493447
120.121688282
119.156455256
118.157022537
117.122642174
116.052595516
114.946199353
113.802813035
112.621846857
111.402772107
110.145131447
108.848553642
107.512769655
106.137631258
104.723132797
103.269436582
101.77690238
100.246121519
98.677955968
97.0735827349
95.4345427939
93.762792161
92.0607612422
90.3314216483
88.5783208122
86.8056271508
85.0181467648
83.2213001107
81.4209873499
79.6230743208
77.8330818448
76.0557365539
74.2859212411
72.4929031019
145.607664989
142.67956644
141.566037542
141.038966126
140.671866729
140.377295431
140.115842129
139.86748309
139.623137
139.378237071
139.130088144
138.876936748
138.617551491
138.350997015
138.076506507
137.793406537
137.501071134
137.19889331
136.886269444
136.56260064
136.227280641
135.879644046
135.519042884
135.144812963
134.756271863
134.352721391
133.933448703
133.497727416
133.044820497
132.57397606
132.084427968
131.575400718
131.046108642
130.495756273
129.923539104
129.328644461
128.710252535
128.067537302
127.3996675
126.705807925
125.985120585
125.236766015
124.459904782
123.653699266
122.81731584
121.94992743
121.050716335
120.118877293
119.153620899
118.154177604
117.119802271
116.049779598
114.943430357
113.800118596
112.619260071
111.400332287
110.142886392
108.846561146
107.511099171
106.136365976
104.722372149
103.269299138
101.777529273
100.247680377
98.6806451864
97.0776359474
95.4402346243
93.7704512313
92.07077623
90.3442187365
88.5943854408
86.8255158593
85.0425044362
83.2508816863
81.4567292595
79.6666304506
77.8871463018
76.1234566351
74.3562169998
72.4592266711
52.3883140629
48.841728214
46.4566553494
44.5090963081
42.8485803352
41.4028078501
40.1261565079
38.9879169855
37.9660908309
37.0441698215
36.2093424864
35.4513389724
34.7616673289
34.1331167686
33.5594415346
33.0351616727
32.55543294
32.1159548456
31.7129002223
31.3428584761
31.0027871773
30.6899692064
30.4019739628
30.1366232564
29.8919616106
29.666229803
29.4578411599
29.2653612989
29.0874914018
28.923053564
28.7709770888
28.6302865766
28.5000925586
28.3795828956
28.2680137353
28.1647016197
28.0690185294
27.9803883749
27.8982823986
27.8222139825
27.751735065
27.686433413
27.6259297865
27.5698764608
27.5179240783
27.4697529747
27.4250764305
27.3836288815
27.3451618968
27.3094455083
27.2762731967
27.2454447225
27.2167689573
27.1900761088
27.1652101392
27.1420236519
27.1203782391
27.1001459929
27.0812092842
27.0634606263
27.0468022945
27.0311432625
27.016396388
27.002480494
26.9893234943
26.9768604878
26.9650295564
26.9537718032
26.9430331289
26.9327639146
26.9229195422
26.913462114
26.9043567863
26.8955659917
26.8870519667
26.8787845383
26.8707411964
26.8629006007
26.855239233
26.8477323273
26.840356512
26.8330936239
26.8259303335
26.8188522058
26.811841111
26.8048799118
26.7979552907
26.7910550063
26.7841654308
26.7772714559
26.7703595403
26.7634196457
26.7564389303
26.7493980922
26.7422795514
26.7350725055
26.7277636674
26.7203321287
26.7127544341
26.7050087878
26.697075535
26.6889301743
26.6805406638
26.6718747058
26.6629012109
26.6535801003
26.6438642557
26.6337074258
26.6230567452
26.6118469048
26.600005301
26.5874559021
26.5741123431
26.5598714848
26.544615882
26.5282166468
26.5105253085
26.4913699487
26.4705540279
26.4478486617
26.4229899029
26.395674345
26.3655468189
26.3321849203
26.2950918238
26.2536801178
26.2072395175
26.1549120668
26.0956514676
26.0281638074
25.9508391429
25.8616432655
25.7579734298
25.6364653239
25.4927142924
25.3208816591
25.1131893786
24.8593219866
24.5459183276
24.1566320425
23.673688404
23.0821446264
22.3775884022
21.5752685646
20.7168087827
19.8680603075
19.1064902094
18.502546624
18.0984777568
17.8805133378
17.7711318543
17.6323200628
17.2900488466
16.570344257
15.3342533628
13.5206217489
11.1821845293
8.33713499679
4.75104877733
0.97464900798
55.5741877662
51.522721957
48.8176944876
46.6756816032
44.8854278089
43.3465281988
41.9991674766
40.8051564581
39.7380491137
38.7784984131
37.9117953492
37.1263509456
36.4127267829
35.7630161938
35.1704523607
34.6291600281
34.1339920015
33.680413158
33.2644129787
32.8824361347
32.5313249742
32.2082690954
31.9107613051
31.6365598561
31.3836556803
31.1502438134
30.9346977849
30.7355482963
30.5514658384
30.3812450522
30.223790299
30.0781034523
29.9432741804
29.8184706139
29.7029294626
29.5959480017
29.4968790841
29.4051272192
29.3201434267
29.2414199795
29.1684871167
29.1009095143
29.0382813523
28.9802240385
28.9263936275
28.8764758022
28.8301788142
28.7872298184
28.7473728429
28.7103681451
28.6759916212
28.6440367648
28.614316212
28.5866579702
28.5609013824
28.53689405
28.5144931478
28.4935662834
28.4739914643
28.4556570562
28.4384616032
28.4223099228
28.4071114895
28.3927818105
28.3792463228
28.3664375568
28.3542910723
28.3427449958
28.3317437161
28.321235338
28.3111733756
28.3015188873
28.2922358876
28.2832838411
28.2746239065
28.266225485
28.2580653794
28.2501208109
28.2423670925
28.2347781683
28.2273303007
28.2200049092
28.2127890547
28.2056667221
28.1986188908
28.19162897
28.1846830569
28.177769625
28.1708738506
28.1639806908
28.1570780873
28.1501550911
28.1432022053
28.1361944799
28.1291186936
28.1219668651
28.1147216005
28.1073665219
28.0998769191
28.0922329885
28.0844173036
28.0764075906
28.068168087
28.0596753687
28.0508988952
28.0417969859
28.0323287355
28.0224505986
28.0121123488
28.0012500583
27.9897995031
27.977685663
27.964829004
27.9511291498
27.9364759916
27.9207459986
27.9037984266
27.8854684866
27.8655659624
27.8438696508
27.8201263351
27.7940431181
27.7652727339
27.7334005756
27.6979456155
27.6583295028
27.6138499161
27.5636664874
27.5067367641
27.4417823623
27.3672068912
27.2809736462
27.1804879707
27.0623960306
26.9222790482
26.7542704879
26.5505460038
26.3006971304
25.9911721644
25.6053226918
25.1249048315
24.5343611858
23.82857934
23.0218430356
22.1543462368
21.2897421652
20.5022702548
19.8592278245
19.3973939385
19.1007123638
18.890231428
18.6305271543
18.1537042359
17.2943222047
15.9234372073
13.9874689327
11.539344762
8.59969595674
4.94510875831
1.07436539987
57.7853922828
53.8523048521
50.9921684501
48.7186422445
46.8282306852
45.2125035299
43.8048737867
42.5624289229
41.4555306006
40.4626471937
39.5675391847
38.7575189263
38.0223428487
37.3535050091
36.7437874256
36.1869720011
35.6776490007
35.2110809356
34.7831005209
34.3900296998
34.0286133196
33.6959624527
33.3895059049
33.1069489292
32.8462376317
32.6055283808
32.3831610515
32.1776366216
31.9875984616
31.8118156928
31.6491686411
31.4986366938
31.3592879712
31.2302695421
31.1107980398
31.0001523179
30.8976682693
30.8027343526
30.7147866962
30.6333044725
30.5578066406
30.4878482823
30.42301662
30.3629281842
30.3072264502
30.2555826471
30.2076930777
30.1632753888
30.1220659212
30.0838186109
30.0483044242
30.0153103022
29.9846397502
29.9561119192
29.9295586305
29.904821757
29.8817536675
29.8602173868
29.840086659
29.8212457284
29.8035885113
29.7870151347
29.7714320625
29.7567530606
29.7429003946
29.729802537
29.7173927929
29.7056078496
29.6943896968
29.6836848413
29.6734460312
29.6636318006
29.6542029053
29.6451182688
29.6363401974
29.62783728
29.6195835968
29.6115546257
29.6037251587
29.5960690916
29.5885636174
29.5811900279
29.57393284
29.5667749894
29.5596988441
29.5526885554
29.5457293943
29.5388090305
29.5319125188
29.5250258872
29.5181393675
29.5112399032
29.5043165361
29.4973483264
29.4903228543
29.4832309906
29.4760549463
29.4687802985
29.4613854615
29.4538516708
29.4461609167
29.4382918384
29.4302133798
29.4219041597
29.4133338152
29.4044635477
29.3952566489
29.385670926
29.3756595458
29.3651639778
29.354124876
29.3424718813
29.3301272038
29.3169970918
29.3029803863
29.2879586839
29.2717984814
29.2543437399
29.2354114455
29.214790266
29.1922394887
29.1674770198
29.1401662653
29.1099079088
29.0762349974
29.0385823693
28.9962673895
28.9484681471
28.8941634668
28.8321007239
28.7607084592
28.677982197
28.5813648069
28.4675420551
28.3321503526
28.169387616
27.9714890183
27.7281132153
27.4257409079
27.0476904734
26.575577248
25.9935473571
25.2958981833
24.4955795899
23.6307534493
22.7625983329
21.9610283585
21.2885274593
20.7767196478
20.4060609861
20.0966239004
19.7157989481
19.1020163585
18.0987191065
16.5870651817
14.520620396
11.9519439366
8.90382859443
5.16355527853
1.18016434272
59.5920602813
55.8693262142
52.9724730108
50.6275448131
48.6686445145
46.994529544
45.5385585951
44.2560240102
43.1155200403
42.0940892391
41.1743939484
40.3429112874
39.5887631051
38.902960619
38.2779180657