/*--------------------------------*- C++ -*----------------------------------*\
| =========                 |                                                 |
| \\      /  F ield         | OpenFOAM: The Open Source CFD Toolbox           |
|  \\    /   O peration     | Version:  2106                                  |
|   \\  /    A nd           | Website:  www.openfoam.com                      |
|    \\/     M anipulation  |                                                 |
\*---------------------------------------------------------------------------*/
FoamFile
{
    version     2.0;
    format      ascii;
    arch        "LSB;label=32;scalar=64";
    class       surfaceScalarField;
    location    "0.08";
    object      phi;
}
// * * * * * * * * * * * * * * * * * * * * * * * * * * * * * * * * * * * * * //

dimensions      [0 3 -1 0 0 0 0];

oriented        oriented;

internalField   nonuniform List<scalar> 
22100
(
3.38461185768e-05
1.61538814362e-05
2.24572025602e-05
1.13889161925e-05
1.62585373237e-05
6.19866534044e-06
1.2797751631e-05
3.46078576549e-06
1.08046124098e-05
1.99313921048e-06
9.60456360157e-06
1.2000487525e-06
8.85131859921e-06
7.53244906832e-07
8.3644027136e-06
4.86915797377e-07
8.04448143208e-06
3.19921238503e-07
7.83314098069e-06
2.11340475382e-07
7.69392290205e-06
1.39218174981e-07
7.60307199879e-06
9.08510543132e-08
7.54470184269e-06
5.83703148858e-08
7.50804444765e-06
3.66574912924e-08
7.48576572057e-06
2.227870495e-08
7.47287554914e-06
1.28900200908e-08
7.46599321749e-06
6.8820958082e-09
7.46282213168e-06
3.17084052147e-09
7.46174030844e-06
1.08165236078e-09
7.4620792345e-06
-3.38981532583e-10
7.46310377282e-06
-1.02450955964e-09
7.46435215012e-06
-1.24835295436e-09
7.46561389806e-06
-1.26183334215e-09
7.46677695056e-06
-1.16329290736e-09
7.46778484079e-06
-1.00824468305e-09
7.46861894082e-06
-8.34478356064e-10
7.46928369318e-06
-6.65084175541e-10
7.46979602575e-06
-5.126154638e-10
7.47017847429e-06
-3.82741140455e-10
7.4704548979e-06
-2.76794236409e-10
7.47064794864e-06
-1.93509331775e-10
7.47077770092e-06
-1.30241239952e-10
7.47086111235e-06
-8.38604781438e-11
7.47091142535e-06
-5.07094437127e-11
7.47093633006e-06
-2.53079497619e-11
7.47094354044e-06
-7.70105108827e-12
7.47094085816e-06
2.08000265537e-12
7.47093283185e-06
7.39127040511e-12
7.47092211639e-06
1.01828324532e-11
7.47091026434e-06
1.14973786948e-11
7.47089794499e-06
1.2084177547e-11
7.47088524044e-06
1.24388040729e-11
7.47087198798e-06
1.28333781778e-11
7.47085799047e-06
1.34195650291e-11
7.47084307602e-06
1.42846124125e-11
7.47082706742e-06
1.54535428941e-11
7.47080973198e-06
1.68941493608e-11
7.47079080002e-06
1.85303784998e-11
7.47076997947e-06
2.03430689782e-11
7.4707468911e-06
2.2472078835e-11
7.4707209851e-06
2.51865250514e-11
7.47069145467e-06
2.88063113628e-11
7.47065720121e-06
3.35932429533e-11
7.4706169105e-06
3.96755128006e-11
7.47056921952e-06
4.70536532885e-11
7.47051290388e-06
5.56272612126e-11
7.47044705842e-06
6.51547559975e-11
7.47037126492e-06
7.51787068539e-11
7.47028597482e-06
8.4792584473e-11
7.47019335827e-06
9.22307855479e-11
7.47009934303e-06
9.37069027009e-11
7.47001619297e-06
8.28724305044e-11
7.46995484508e-06
6.10683960039e-11
7.46993283458e-06
2.17287864707e-11
7.46998694009e-06
-5.43766887215e-11
7.47017741084e-06
-1.90728086619e-10
7.47060252941e-06
-4.25394235685e-10
7.47141875973e-06
-8.16563758957e-10
7.47287169104e-06
-1.45331095205e-09
7.47533097228e-06
-2.45964347631e-09
7.4792563674e-06
-3.92567962402e-09
7.48595871066e-06
-6.7025570214e-09
7.49712741967e-06
-1.11688615808e-08
7.5159528163e-06
-1.88254608132e-08
7.55023450371e-06
-3.4281654347e-08
7.62154800703e-06
-7.13133578362e-08
7.79313308755e-06
-1.715848552e-07
8.26195168059e-06
-4.68818278171e-07
9.77968700351e-06
-1.51773494494e-06
-5.68672759441e-06
1.54664149919e-05
5.02175900964e-05
1.59362914863e-05
4.42440958772e-05
1.73624106186e-05
3.77794734656e-05
1.26632878186e-05
3.26461098428e-05
8.59414936406e-06
2.89380693106e-05
5.70117962629e-06
2.63596451769e-05
3.77847273781e-06
2.45876444956e-05
2.52524547123e-06
2.33737916391e-05
1.70076860687e-06
2.25441486823e-05
1.14956425793e-06
2.19792948424e-05
7.76194493066e-07
2.15972244722e-05
5.21288785513e-07
2.13412786349e-05
3.46797112575e-07
2.11720766802e-05
2.27572380417e-07
2.10621639994e-05
1.4657009919e-07
2.09924077698e-05
9.2034671529e-08
2.09495203215e-05
5.57770823787e-08
2.0924331444e-05
3.20705871769e-08
2.09105949061e-05
1.69071130719e-08
2.09042194925e-05
7.4569639335e-09
2.09022610465e-05
1.61946927964e-09
2.09027201868e-05
-1.48367453245e-09
2.09043570218e-05
-2.88539086544e-09
2.09065167659e-05
-3.42201588543e-09
2.09087681105e-05
-3.41524852411e-09
2.09108676525e-05
-3.10843670023e-09
2.09126959196e-05
-2.66333781469e-09
2.09142114836e-05
-2.18118172432e-09
2.09154197028e-05
-1.72139384689e-09
2.09163515514e-05
-1.31527081332e-09
2.09170500256e-05
-9.76082465785e-10
2.09175622726e-05
-7.06622496575e-10
2.09179363683e-05
-5.05158206922e-10
2.09181922014e-05
-3.40452700678e-10
2.09183478468e-05
-2.07130757453e-10
2.09184370717e-05
-1.15427949998e-10
2.09184813269e-05
-5.29929606432e-11
2.09184987885e-05
-1.64465230058e-11
2.0918500103e-05
5.16447557063e-12
2.09184917079e-05
1.79119563675e-11
2.09184777228e-05
2.49725483199e-11
2.09184605301e-05
2.87089692727e-11
2.09184413203e-05
3.08537654477e-11
2.09184206368e-05
3.24985501695e-11
2.09183986886e-05
3.42883944812e-11
2.09183754588e-05
3.6551566171e-11
2.0918350723e-05
3.93787530822e-11
2.09183240745e-05
4.27571107021e-11
2.09182950592e-05
4.66191106872e-11
2.09182632882e-05
5.09774955647e-11
2.09182284194e-05
5.60655890192e-11
2.09181901209e-05
6.22116432714e-11
2.09181480292e-05
6.97127291201e-11
2.09181017947e-05
7.87036408597e-11
2.09180512631e-05
8.90607591669e-11
2.09179967661e-05
1.00347124269e-10
2.09179395151e-05
1.11679981761e-10
2.0917882199e-05
1.21393902206e-10
2.09178298559e-05
1.26642404875e-10
2.0917791292e-05
1.22665948104e-10
2.0917781249e-05
1.01701981704e-10
2.09178256303e-05
4.87919796535e-11
2.09179724867e-05
-6.45026933811e-11
2.09182929929e-05
-2.59928035236e-10
2.09189065334e-05
-5.92291789337e-10
2.09199391721e-05
-1.08752414566e-09
2.09215576049e-05
-1.80972914232e-09
2.09241346777e-05
-3.00309964334e-09
2.09282417526e-05
-4.92429487778e-09
2.09347871645e-05
-7.99933013929e-09
2.09452617273e-05
-1.29346980201e-08
2.09622785336e-05
-2.09428559951e-08
2.09901187575e-05
-3.45430272126e-08
2.10360834351e-05
-5.7133603504e-08
2.11139417391e-05
-9.66836291812e-08
2.12508136225e-05
-1.71153240152e-07
2.15021465903e-05
-3.2264588721e-07
2.19816329555e-05
-6.51070656783e-07
2.29150702017e-05
-1.40225485571e-06
2.46581248779e-05
-3.26078886247e-06
-7.43367045425e-06
2.64050682901e-05
5.35171009703e-05
1.24191906313e-05
5.29349551196e-05
1.79445565599e-05
4.96538203188e-05
1.59444226077e-05
4.58401681457e-05
1.24078014698e-05
4.24401151014e-05
9.10123256631e-06
3.97292833375e-05
6.48930440109e-06
3.76875867485e-05
4.56694200379e-06
3.61982308104e-05
3.19012455406e-06
3.51336230371e-05
2.21417211617e-06
3.43840159268e-05
1.52580175355e-06
3.38631427576e-05
1.04216213462e-06
3.35059858749e-05
7.03954137957e-07
3.32646320412e-05
4.68926246206e-07
3.31042759377e-05
3.06926090911e-07
3.29999144491e-05
1.96395913612e-07
3.2933767537e-05
1.2192368188e-07
3.28933212302e-05
7.25166143654e-08
3.28698602958e-05
4.03678798114e-08
3.28573476784e-05
1.99695463487e-08
3.28514981981e-05
7.46897256401e-09
3.28501728972e-05
-1.58427684625e-10
3.28508924478e-05
-3.6051791636e-09
3.28527842302e-05
-5.31422950941e-09
3.28551236825e-05
-5.75523441452e-09
3.28574860339e-05
-5.47130984473e-09
3.28596427339e-05
-4.82049166819e-09
3.28614886958e-05
-4.02756876488e-09
3.28629946327e-05
-3.22782736904e-09
3.28641748828e-05
-2.49615527518e-09
3.28650659162e-05
-1.86786168269e-09
3.28657122386e-05
-1.35370611858e-09
3.28661568469e-05
-9.50466053244e-10
3.28664647381e-05
-6.4899254086e-10
3.28666977547e-05
-4.40833901709e-10
3.28668418441e-05
-2.60329078069e-10
3.28669224049e-05
-1.34480828605e-10
3.28669629545e-05
-5.79126909133e-11
3.28669781097e-05
-1.07487988307e-11
3.28669771712e-05
1.82898594966e-11
3.28669664397e-05
3.52297205303e-11
3.28669499525e-05
4.46347137239e-11
3.28669300396e-05
5.00189159774e-11
3.28669079837e-05
5.36685988308e-11
3.28668844285e-05
5.69643298736e-11
3.28668595827e-05
6.0630828523e-11
3.28668333219e-05
6.49607072041e-11
3.28668052384e-05
7.01221680079e-11
3.28667749365e-05
7.6042677935e-11
3.28667422447e-05
8.26193095033e-11
3.28667071246e-05
9.00708913374e-11
3.28666696583e-05
9.86215564841e-11
3.28666300821e-05
1.08316518834e-10
3.28665889333e-05
1.18885818585e-10
3.2866547354e-05
1.29596156074e-10
3.28665075614e-05
1.39029931075e-10
3.28664735443e-05
1.44628600422e-10
3.28664520368e-05
1.41990446493e-10
3.28664534452e-05
1.24527051411e-10
3.28664938198e-05
8.17431204546e-11
3.28666000799e-05
-5.05166780573e-12
3.28668220805e-05
-1.7371879171e-10
3.28672462579e-05
-4.8919112051e-10
3.2867920366e-05
-9.34502002581e-10
3.28689081273e-05
-1.5804595856e-09
3.28704652976e-05
-2.64510272416e-09
3.28729972713e-05
-4.34219231051e-09
3.28770258677e-05
-7.03226677077e-09
3.28833994296e-05
-1.12984425074e-08
3.2893490855e-05
-1.80912737756e-08
3.29095676632e-05
-2.90119370816e-08
3.29354635944e-05
-4.68391348567e-08
3.29768231551e-05
-7.59028115438e-08
3.30440329087e-05
-1.24343419707e-07
3.31550427702e-05
-2.07693366537e-07
3.33406635848e-05
-3.56773802735e-07
3.36524234697e-05
-6.34405377492e-07
3.41673675583e-05
-1.16601424519e-06
3.49612199095e-05
-2.19610662073e-06
3.59070653553e-05
-4.20663360898e-06
-7.59765460763e-06
3.60710501483e-05
5.35105641996e-05
8.90862648378e-06
5.55742162964e-05
1.58809044443e-05
5.52424781708e-05
1.62761606527e-05
5.35977997418e-05
1.40524798063e-05
5.15419126884e-05
1.11571195389e-05
4.95804515632e-05
8.45076548004e-06
4.79247127537e-05
6.22268081391e-06
4.6618807762e-05
4.49602959347e-06
4.56315946554e-05
3.20138531318e-06
4.4906894336e-05
2.25050219233e-06
4.43867368765e-05
1.56231970811e-06
4.4020455463e-05
1.07023561435e-06
4.3767100343e-05
7.22281335425e-07
4.35950260317e-05
4.79000258222e-07
4.34804833009e-05
3.10938409731e-07
4.34060250621e-05
1.96381663577e-07
4.33590500438e-05
1.19491429791e-07
4.3330587213e-05
6.88306179807e-08
4.33143381869e-05
3.62185736828e-08
4.33059709856e-05
1.58361745897e-08
4.33021393022e-05
3.6731358676e-09
4.33015140548e-05
-2.98023464325e-09
4.33024719547e-05
-6.27257717793e-09
4.33041701766e-05
-7.45394579372e-09
4.33061064718e-05
-7.40804491905e-09
4.33079900828e-05
-6.70448429419e-09
4.33096702207e-05
-5.70810686162e-09
4.33110843349e-05
-4.64245690226e-09
4.33122230496e-05
-3.63553422996e-09
4.33131066966e-05
-2.75225942461e-09
4.33137700783e-05
-2.01782137625e-09
4.3314251794e-05
-1.43284156093e-09
4.33145836372e-05
-9.81458600342e-10
4.33147830842e-05
-6.40965279157e-10
4.33149073487e-05
-3.85409453351e-10
4.33149611141e-05
-1.8915517689e-10
4.33149962262e-05
-9.38930578217e-11
4.33150107138e-05
-2.5945355989e-11
4.33150110664e-05
1.73855522925e-11
4.3315002384e-05
4.33975013709e-11
4.33149880202e-05
5.83863043755e-11
4.33149698661e-05
6.74231574686e-11
4.33149490386e-05
7.36829412627e-11
4.33149261531e-05
7.90791824094e-11
4.33149014129e-05
8.46781150845e-11
4.33148747228e-05
9.09700663758e-11
4.33148459181e-05
9.81472411065e-11
4.33148148595e-05
1.06160778744e-10
4.33147815295e-05
1.14898277336e-10
4.33147460808e-05
1.24481541584e-10
4.3314708883e-05
1.34874844675e-10
4.33146705815e-05
1.45728641916e-10
4.33146322694e-05
1.56251001539e-10
4.33145957606e-05
1.65040735573e-10
4.33145638817e-05
1.69802692126e-10
4.33145407116e-05
1.66800466314e-10
4.33145320035e-05
1.49906561861e-10
4.33145471381e-05
1.08789912416e-10
4.33146021288e-05
2.62369657649e-11
4.33147210896e-05
-1.24532337861e-10
4.33149121009e-05
-3.65273238127e-10
4.33152771483e-05
-8.54766846124e-10
4.33159545668e-05
-1.61239140134e-09
4.33171225539e-05
-2.74886887717e-09
4.33189847559e-05
-4.50773656855e-09
4.33218972773e-05
-7.25520723093e-09
4.33264387676e-05
-1.15743084368e-08
4.33335238494e-05
-1.8384070102e-08
4.33445984351e-05
-2.91663501377e-08
4.33619319273e-05
-4.63458494035e-08
4.33890295383e-05
-7.39370428113e-08
4.34317901805e-05
-1.18663596815e-07
4.34996401923e-05
-1.92193432697e-07
4.36072914951e-05
-3.15344541826e-07
4.37763697062e-05
-5.25851774998e-07
4.40341594143e-05
-8.92194726317e-07
4.44011560617e-05
-1.53301043876e-06
4.48425245169e-05
-2.63747451834e-06
4.51156692066e-05
-4.4797776691e-06
-7.10970908511e-06
4.46277242934e-05
5.27351379172e-05
6.17348856076e-06
5.57309356109e-05
1.28851066381e-05
5.73114829513e-05
1.46956131859e-05
5.7611022711e-05
1.37529399689e-05
5.71336028177e-05
1.16345394029e-05
5.63196406737e-05
9.26472764447e-06
5.54493156305e-05
7.09300590916e-06
5.46635455697e-05
5.28179972396e-06
5.40146003063e-05
3.85033065301e-06
5.3507553445e-05
2.75754911682e-06
5.31262980547e-05
1.94357514084e-06
5.28478416746e-05
1.34869198478e-06
5.26492898004e-05
9.20833136436e-07
5.25107394472e-05
6.17550468041e-07
5.24160848065e-05
4.05592860218e-07
5.23528601118e-05
2.59606171799e-07
5.23117092095e-05
1.60642206853e-07
5.2285771255e-05
9.47685350615e-08
5.22701087818e-05
5.18810517428e-08
5.22612049128e-05
2.47399926785e-08
5.22566282852e-05
8.24956853712e-09
5.22548058519e-05
-1.15815292925e-09
5.22545798156e-05
-6.04697750851e-09
5.22552130903e-05
-8.08764336469e-09
5.22562375402e-05
-8.43285257612e-09
5.22573710206e-05
-7.83829690019e-09
5.22584536248e-05
-6.79111904103e-09
5.22594046096e-05
-5.59400636733e-09
5.22601928471e-05
-4.42448288772e-09
5.22608155287e-05
-3.37570333475e-09
5.22612851526e-05
-2.48815553247e-09
5.22616223598e-05
-1.77067549609e-09
5.22618534433e-05
-1.21314810357e-09
5.22620081539e-05
-7.96366598201e-10
5.22621149682e-05
-4.93050216587e-10
5.22622072667e-05
-2.82351853385e-10
5.22622604637e-05
-1.47925441167e-10
5.22622934076e-05
-5.9574429388e-11
5.2262303922e-05
6.30398025481e-12
5.22623015205e-05
4.52353675679e-11
5.22622913992e-05
6.7854847073e-11
5.22622765866e-05
8.14978935114e-11
5.22622586871e-05
9.08374433602e-11
5.22622384958e-05
9.85809403889e-11
5.22622164196e-05
1.06099721378e-10
5.22621929557e-05
1.13720704458e-10
5.22621670857e-05
1.23158796531e-10
5.22621381987e-05
1.34051117828e-10
5.22621070916e-05
1.44975825977e-10
5.22620739512e-05
1.56670256679e-10
5.22620390466e-05
1.68918610512e-10
5.22620029607e-05
1.80943210411e-10
5.22619667668e-05
1.91448962599e-10
5.22619322959e-05
1.98398110569e-10
5.22619025355e-05
1.98479912297e-10
5.22618826792e-05
1.85764182554e-10
5.22618849766e-05
1.46945083037e-10
5.22619240039e-05
6.92195121613e-11
5.22620166992e-05
-6.7016524324e-11
5.22621571836e-05
-2.65621236593e-10
5.22624205685e-05
-6.29248731155e-10
5.22628736791e-05
-1.30839680449e-09
5.22635595289e-05
-2.29869098314e-09
5.22646188773e-05
-3.80865590951e-09
5.22662592997e-05
-6.14862269549e-09
5.22687906708e-05
-9.78708271052e-09
5.2272678907e-05
-1.54630687492e-08
5.22786409822e-05
-2.43466609192e-08
5.22877838811e-05
-3.83097327231e-08
5.23018119608e-05
-6.03743174325e-08
5.23233341984e-05
-9.54595233894e-08
5.23563166723e-05
-1.51646161787e-07
5.24065259746e-05
-2.42402742324e-07
5.24815724774e-05
-3.90390980133e-07
5.2589356617e-05
-6.33635737626e-07
5.27317925189e-05
-1.03463034061e-06
5.28878721886e-05
-1.68908961834e-06
5.29754011916e-05
-2.72500294744e-06
5.27745636417e-05
-4.2789395426e-06
-6.29168505454e-06
5.19565401277e-05
5.19834879703e-05
4.19000051223e-06
5.50586699925e-05
9.80992443983e-06
5.76386285682e-05
1.211565447e-05
5.93259359841e-05
1.20656325051e-05
6.02280781628e-05
1.07323972543e-05
6.05930376511e-05
8.89976824167e-06
6.06484671048e-05
7.03757655419e-06
6.05534758566e-05
5.37679105501e-06
6.04033818046e-05
4.00042475066e-06
6.02485257132e-05
2.91240521438e-06
6.01116346013e-05
2.08046622644e-06
6.0000164532e-05
1.46016198944e-06
5.99139970876e-05
1.00700048225e-06
5.98498118703e-05
6.81735554961e-07
5.9803371352e-05
4.52033240471e-07
5.97705998992e-05
2.92377513411e-07
5.9748012084e-05
1.83229970339e-07
5.97328145897e-05
1.09966023419e-07
5.97228589425e-05
6.18366775477e-08
5.97165379077e-05
3.10609086906e-08
5.9712698553e-05
1.20886633158e-08
5.97105193953e-05
1.02063864681e-09
5.97094056903e-05
-4.93366135827e-09
5.97089523048e-05
-7.63459721595e-09
5.97088855434e-05
-8.36637828752e-09
5.97090260457e-05
-7.97911455672e-09
5.97092602213e-05
-7.02574314425e-09
5.97095193953e-05
-5.85380701612e-09
5.97097649422e-05
-4.67077856897e-09
5.97099786736e-05
-3.59019029817e-09
5.9710154945e-05
-2.66509953173e-09
5.97102948103e-05
-1.91112967276e-09
5.9710403307e-05
-1.32223945492e-09
5.97104884739e-05
-8.82239602647e-10
5.97105543176e-05
-5.59735518779e-10
5.97105989454e-05
-3.27869708907e-10
5.97106188599e-05
-1.68655327478e-10
5.97106105779e-05
-5.19777687918e-11
5.97106021152e-05
1.41643911934e-11
5.97105938933e-05
5.2844968321e-11
5.97105857085e-05
7.53665444006e-11
5.9710574974e-05
9.15272682045e-11
5.97105614447e-05
1.03692061466e-10
5.97105452404e-05
1.14157940174e-10
5.97105263096e-05
1.24383440196e-10
5.97105041389e-05
1.35120584902e-10
5.97104796713e-05
1.46691402351e-10
5.97104536395e-05
1.59062646395e-10
5.97104256053e-05
1.72038339176e-10
5.97103959625e-05
1.85454428601e-10
5.97103653823e-05
1.98684367302e-10
5.97103348817e-05
2.10534440206e-10
5.97103060834e-05
2.19181152839e-10
5.97102813245e-05
2.22029904331e-10
5.97102632974e-05
2.15500876239e-10
5.97102532331e-05
1.95061266673e-10
5.97102433439e-05
1.56259376059e-10
5.97102348977e-05
7.71258912088e-11
5.97102379074e-05
-7.0640060278e-11
5.9710349956e-05
-3.78339097222e-10
5.97105858419e-05
-8.65767809397e-10
5.97109006305e-05
-1.62371198826e-09
5.97113836928e-05
-2.78219818539e-09
5.97121218562e-05
-4.54725032327e-09
5.97132273839e-05
-7.25461493492e-09
5.97148649459e-05
-1.1425146912e-08
5.97172740835e-05
-1.78727223589e-08
5.97208039664e-05
-2.78770393598e-08
5.97259591132e-05
-4.34652852895e-08
5.97334531794e-05
-6.78686825348e-08
5.97442482235e-05
-1.06254776763e-07
5.97594923403e-05
-1.66890380134e-07
5.97801624602e-05
-2.63072874497e-07
5.98058550867e-05
-4.1608351798e-07
5.98315780146e-05
-6.59358468809e-07
5.9840331634e-05
-1.04338368342e-06
5.9788913857e-05
-1.63767143834e-06
5.95854672548e-05
-2.52155579023e-06
5.90621027669e-05
-3.75557446563e-06
-5.26676908053e-06
5.80371873093e-05
5.14373078487e-05
2.75269255136e-06
5.42658290319e-05
6.98140306171e-06
5.72496592346e-05
9.13182415179e-06
5.97900496001e-05
9.52524214005e-06
6.17201497266e-05
8.80229721008e-06
6.30883107656e-05
7.53160733031e-06
6.40166870575e-05
6.10920037722e-06
6.46291340157e-05
4.76434416287e-06
6.50255788219e-05
3.60397995094e-06
6.52786680841e-05
2.65931590733e-06
6.54383024667e-05
1.92083176778e-06
6.55376745695e-05
1.36078980282e-06
6.5598480663e-05
9.46194298407e-07
6.563477777e-05
6.4543835342e-07
6.56556347802e-05
4.31176148119e-07
6.56668873826e-05
2.81124862178e-07
6.56722791519e-05
1.77838187158e-07
6.56741990348e-05
1.08046131463e-07
6.56741579436e-05
6.18776991209e-08
6.56730975821e-05
3.21210863342e-08
6.5671595416e-05
1.35905332026e-08
6.56700043777e-05
2.61132688533e-09
6.56685017955e-05
-3.43140475769e-09
6.56671809582e-05
-6.31402504747e-09
6.566607359e-05
-7.25926167618e-09
6.56651792976e-05
-7.08516502356e-09
6.56644796252e-05
-6.32658960859e-09
6.56639477693e-05
-5.32264119854e-09
6.56635546307e-05
-4.27840692721e-09
6.56632725559e-05
-3.30884150106e-09
6.56630768544e-05
-2.47002130144e-09
6.56629461266e-05
-1.78096208517e-09
6.56628618699e-05
-1.23859181026e-09
6.56628062675e-05
-8.2738354841e-10
6.56627693591e-05
-5.23695543188e-10
6.56627434678e-05
-3.02864612299e-10
6.56627233993e-05
-1.49388805204e-10
6.56627227676e-05
-5.20401984e-11
6.56627306435e-05
5.64731998205e-12
6.56627275052e-05
5.53297567909e-11
6.56627202263e-05
8.19683757884e-11
6.56627113885e-05
9.97077232844e-11
6.56627010442e-05
1.13432544055e-10
6.56626888648e-05
1.2574972516e-10
6.56626744474e-05
1.38126280682e-10
6.56626574467e-05
1.51276547723e-10
6.5662637656e-05
1.65495104336e-10
6.56626153213e-05
1.80399909717e-10
6.56625922607e-05
1.94212612559e-10
6.56625674999e-05
2.09434178044e-10
6.56625409067e-05
2.24464608975e-10
6.56625129301e-05
2.375364173e-10
6.56624844465e-05
2.46552093859e-10
6.56624568286e-05
2.48562724119e-10
6.56624321318e-05
2.39311061689e-10
6.56624139572e-05
2.12580730795e-10
6.56624098211e-05
1.5984490117e-10
6.56624119028e-05
7.445581448e-11
6.56624321006e-05
-9.15137248376e-11
6.56624858192e-05
-4.32754709454e-10
6.56625702693e-05
-9.50841102194e-10
6.5662700584e-05
-1.75453708202e-09
6.566288584e-05
-2.9678932961e-09
6.56631375226e-05
-4.79937570025e-09
6.56634599336e-05
-7.57750901459e-09
6.56638416532e-05
-1.1807374325e-08
6.5664238542e-05
-1.82701076332e-08
6.56645429895e-05
-2.81819243339e-08
6.56645251948e-05
-4.34478473184e-08
6.56637217993e-05
-6.70655530028e-08
6.56612137579e-05
-1.03746925446e-07
6.5655146168e-05
-1.60822885839e-07
6.56417916558e-05
-2.49718365304e-07
6.56136670207e-05
-3.87958854888e-07
6.55559120009e-05
-6.01603397267e-07
6.54398336463e-05
-9.27305127087e-07
6.52132593892e-05
-1.4110967562e-06
6.47901582317e-05
-2.09845408969e-06
6.40469254367e-05
-3.01234114577e-06
-4.09453429714e-06
6.28746910865e-05
5.10850453904e-05
1.66764702096e-06
5.36118538001e-05
4.45459446449e-06
5.66873295207e-05
6.05634834726e-06
5.96894515775e-05
6.52312012085e-06
6.22996984518e-05
6.19205046084e-06
6.4413581069e-05
5.41772486435e-06
6.60469280125e-05
4.47585355609e-06
6.72681101553e-05
3.54316207353e-06
6.81590065341e-05
2.71308354596e-06
6.87963239723e-05
2.02199838932e-06
6.92445629427e-05
1.47259270245e-06
6.95548179318e-05
1.05053473309e-06
6.97660914475e-05
7.34920718818e-07
6.99074153388e-05
5.04114415897e-07
7.00000001487e-05
3.38591304771e-07
7.00591104053e-05
2.22014590074e-07
7.00955873444e-05
1.41361236885e-07
7.01170355084e-05
8.65979199057e-08
7.01287228279e-05
5.01902472572e-08
7.01342499492e-05
2.65937270534e-08
7.01360427059e-05
1.17974669663e-08
7.0135711596e-05
2.94212683232e-09
7.01342837559e-05
-2.00381881643e-09
7.01324058735e-05
-4.43635220648e-09
7.01304602526e-05
-5.31389349299e-09
7.01286581561e-05
-5.28347166723e-09
7.01271003013e-05
-4.76933246482e-09
7.01258189595e-05
-4.04203656252e-09
7.01248064092e-05
-3.26661459356e-09
7.01240337997e-05
-2.53690527703e-09
7.01234631534e-05
-1.89994491223e-09
7.01230546353e-05
-1.37299521199e-09
7.01227707974e-05
-9.55404824049e-10
7.01225789913e-05
-6.3637728675e-10
7.01224541276e-05
-3.99720843719e-10
7.01223793683e-05
-2.28971180937e-10
7.01223402349e-05
-1.11026517195e-10
7.01223150454e-05
-2.75417113156e-11
7.01222932503e-05
2.67691862339e-11
7.0122287493e-05
6.03996507117e-11
7.01222843238e-05
8.44676528998e-11
7.01222811344e-05
1.02293821588e-10
7.01222768857e-05
1.17136152993e-10
7.01222709682e-05
1.31088021656e-10
7.01222630633e-05
1.45305287115e-10
7.01222531057e-05
1.60331157946e-10
7.01222412619e-05
1.76351448455e-10
7.01222275239e-05
1.93210377549e-10
7.01222103995e-05
2.10540419825e-10
7.01221910493e-05
2.28041577973e-10
7.01221699915e-05
2.44673686529e-10
7.01221476615e-05
2.5883296567e-10
7.01221247742e-05
2.6831989684e-10
7.01221022524e-05
2.700825253e-10
7.01220808617e-05
2.59937626596e-10
7.01220603451e-05
2.32509218194e-10
7.01220379088e-05
1.81707178354e-10
7.0122010995e-05
1.00702997209e-10
7.0121980272e-05
-6.1525324052e-11
7.01219497201e-05
-4.02890833975e-10
7.01219151763e-05
-9.16867321592e-10
7.01218453206e-05
-1.68515747607e-09
7.01217043292e-05
-2.82735340549e-09
7.01214306129e-05
-4.52614673134e-09
7.01209132781e-05
-7.06069646659e-09
7.01199598684e-05
-1.08544766047e-08
7.0118239686e-05
-1.65503807921e-08
7.01151901906e-05
-2.51328285941e-08
7.01098627632e-05
-3.81207818634e-08
7.0100673956e-05
-5.7877041843e-08
7.00849863093e-05
-8.80594676823e-08
7.00583120341e-05
-1.34148705782e-07
7.00130566383e-05
-2.04463012266e-07
6.99364075912e-05
-3.1130986709e-07
6.980695345e-05
-4.72149224733e-07
6.95897462732e-05
-7.10097805669e-07
6.9230565591e-05
-1.05191575049e-06
6.86526387603e-05
-1.52052682363e-06
6.77618980901e-05
-2.1216000149e-06
-2.81627299386e-06
6.648363717e-05
5.08804165206e-05
7.87230372435e-07
5.31704754247e-05
2.16453540362e-06
5.62177590057e-05
3.00906471866e-06
5.94382588764e-05
3.30262032133e-06
6.24448971498e-05
3.18541232938e-06
6.50380485887e-05
2.82457357131e-06
6.71544228169e-05
2.35947942504e-06
6.88127308886e-05
1.88485402247e-06
7.00717473751e-05
1.45406701006e-06
7.10034074098e-05
1.09033827005e-06
7.16778758791e-05
7.98124150765e-07
7.21565836023e-05
5.71826947507e-07
7.24899722039e-05
4.01532080075e-07
7.27177191691e-05
2.76367430746e-07
7.2870077284e-05
1.86233180808e-07
7.29695636341e-05
1.22528231219e-07
7.30326096514e-05
7.83151876066e-08
7.30710025381e-05
4.8204939771e-08
7.30930664914e-05
2.81261104219e-08
7.31045910036e-05
1.50689512289e-08
7.31095400317e-05
6.84815087178e-09
7.31105814435e-05
1.90046725582e-09
7.3109462851e-05
-8.85413404976e-10
7.31073045195e-05
-2.27820499154e-09
7.31047946721e-05
-2.8043370771e-09
7.31023320782e-05
-2.82135941361e-09
7.31001260468e-05
-2.56396760477e-09
7.30982655529e-05
-2.18229724554e-09
7.30967665587e-05
-1.76833491428e-09
7.30956040009e-05
-1.3749494859e-09
7.30947327262e-05
-1.02919812364e-09
7.30941004574e-05
-7.41299166196e-10
7.30936560331e-05
-5.11696631675e-10
7.30933539143e-05
-3.35113421632e-10
7.30931564545e-05
-2.03155783277e-10
7.30930333412e-05
-1.0668665321e-10
7.30929583818e-05
-3.68023215049e-11
7.30929173753e-05
1.27696676594e-11
7.30928985885e-05
4.48453009824e-11
7.30928895709e-05
6.87029705307e-11
7.30928865153e-05
8.68710336548e-11
7.30928860409e-05
1.02213524051e-10
7.30928859661e-05
1.16694108619e-10
7.30928849808e-05
1.31465937007e-10
7.30928823631e-05
1.47134832621e-10
7.30928777972e-05
1.63962318417e-10
7.30928712165e-05
1.81986464051e-10
7.30928625989e-05
2.00994649586e-10
7.30928518918e-05
2.20524852792e-10
7.30928390869e-05
2.40101084668e-10
7.30928241583e-05
2.58697242056e-10
7.30928071446e-05
2.74781635743e-10
7.30927881313e-05
2.86267215126e-10
7.30927671046e-05
2.90226140406e-10
7.30927438043e-05
2.82570164585e-10
7.30927178192e-05
2.57915289288e-10
7.30926890105e-05
2.09869322959e-10
7.30926575876e-05
1.31365874855e-10
7.30926003044e-05
-5.00636098438e-12
7.30924976738e-05
-3.00908310031e-10
7.30923363107e-05
-7.56023045079e-10
7.30920697747e-05
-1.41908320145e-09
7.30916217779e-05
-2.37984772797e-09
7.30908661571e-05
-3.77106083827e-09
7.30895938823e-05
-5.78895869954e-09
7.30874615497e-05
-8.722633936e-09
7.30839022903e-05
-1.29915419087e-08
7.30779828657e-05
-1.92137756325e-08
7.30681801383e-05
-2.83183945785e-08
7.3052040749e-05
-4.17379106613e-08
7.30256327681e-05
-6.16516361194e-08
7.29825558088e-05
-9.10718309896e-08
7.29125557529e-05
-1.34463050612e-07
7.27994185424e-05
-1.98172783101e-07
7.26180058606e-05
-2.9073661814e-07
7.23306020491e-05
-4.22693945753e-07
7.18837037171e-05
-6.05017161316e-07
7.12081672982e-05
-8.44989972062e-07
7.02268439546e-05
-1.14027623194e-06
-1.46911401748e-06
6.88796853034e-05
5.07871760563e-05
5.41969682701e-11
5.29516589451e-05
5.23872566565e-11
5.59606952903e-05
2.83528301603e-11
5.92633016101e-05
1.40757183596e-11
6.24487109267e-05
3.14795268651e-12
6.52732898769e-05
-5.25055543265e-12
6.76327800268e-05
-1.06599910088e-11
6.95176472342e-05
-1.31956104035e-11
7.09717274752e-05
-1.32875992326e-11
7.20620772063e-05
-1.15259410474e-11
7.28602098602e-05
-8.55333134693e-12
7.3432041837e-05
-5.06112857574e-12
7.38335756699e-05
-1.76614814055e-12
7.41099424306e-05
6.63198478274e-13
7.42961739321e-05
1.67037903672e-12
7.4418701391e-05
7.47308887536e-13
7.44970186518e-05
-2.13915464604e-12
7.45452300905e-05
-6.63739554862e-12
7.45733679284e-05
-1.19465042942e-11
7.45884535439e-05
-1.69264821914e-11
7.45953215694e-05
-2.01164375349e-11
7.45972426505e-05
-2.07920185525e-11
7.45963770851e-05
-1.99865884216e-11
7.45941172903e-05
-1.86041789858e-11
7.45913294606e-05
-1.6864245303e-11
7.45885222549e-05
-1.47166522424e-11
7.45859695375e-05
-1.19617028568e-11
7.45837948495e-05
-8.34117777823e-12
7.4582029391e-05
-3.51499719715e-12
7.45806516553e-05
2.25771491877e-12
7.45796137173e-05
8.22767563742e-12
7.4578856901e-05
1.48945909562e-11
7.45783226657e-05
2.17524116106e-11
7.45779580093e-05
2.86555287492e-11
7.45777181658e-05
3.58198627674e-11
7.45775672347e-05
4.34702020349e-11
7.45774782091e-05
5.15174239139e-11
7.4577430395e-05
5.98728043291e-11
7.45774065529e-05
6.79435169659e-11
7.45773975863e-05
7.69466141148e-11
7.45773967422e-05
8.7089601139e-11
7.45773997495e-05
9.86826281239e-11
7.45774039753e-05
1.11945338622e-10
7.45774078504e-05
1.26933539279e-10
7.45774105471e-05
1.43597233538e-10
7.45774117337e-05
1.61837554753e-10
7.45774113354e-05
1.81501949957e-10
7.45774092851e-05
2.022995847e-10
7.45774053916e-05
2.23737876048e-10
7.45773995095e-05
2.45208090437e-10
7.45773915075e-05
2.65746249688e-10
7.45773812391e-05
2.84003220684e-10
7.45773684321e-05
2.98116867811e-10
7.45773524538e-05
3.05449967079e-10
7.45773320497e-05
3.02364352534e-10
7.45773051649e-05
2.84168239755e-10
7.45772690111e-05
2.45263043821e-10
7.45772205943e-05
1.78951519461e-10
7.45771415672e-05
7.32647779968e-11
7.45769710367e-05
-1.30970629151e-10
7.45767233127e-05
-5.087687724e-10
7.45763119865e-05
-1.0082308939e-09
7.45756349798e-05
-1.70338837162e-09
7.45745253949e-05
-2.66205780051e-09
7.45727117912e-05
-3.97588574528e-09
7.45697583422e-05
-5.76962109457e-09
7.45649541411e-05
-8.18773482125e-09
7.45571391651e-05
-1.13991905455e-08
7.45444394649e-05
-1.56190461994e-08
7.45238880758e-05
-2.11867692974e-08
7.44908817732e-05
-2.86454513868e-08
7.44380053149e-05
-3.8195465147e-08
7.43536826246e-05
-5.01405381706e-08
7.42201447767e-05
-6.46351562415e-08
7.40107836267e-05
-8.13756281141e-08
7.36872270058e-05
-9.91372874428e-08
7.31972893054e-05
-1.15079162552e-07
7.2476251318e-05
-1.23951514881e-07
7.14544958326e-05
-1.18520325145e-07
-9.01288945966e-08
7.00755109971e-05
5.07871750098e-05
-7.8712091303e-07