/*--------------------------------*- C++ -*----------------------------------*\
| =========                 |                                                 |
| \\      /  F ield         | OpenFOAM: The Open Source CFD Toolbox           |
|  \\    /   O peration     | Version:  2106                                  |
|   \\  /    A nd           | Website:  www.openfoam.com                      |
|    \\/     M anipulation  |                                                 |
\*---------------------------------------------------------------------------*/
FoamFile
{
    version     2.0;
    format      ascii;
    arch        "LSB;label=32;scalar=64";
    class       volScalarField;
    location    "0.3";
    object      p;
}
// * * * * * * * * * * * * * * * * * * * * * * * * * * * * * * * * * * * * * //

dimensions      [0 2 -2 0 0 0 0];

internalField   nonuniform List<scalar> 
11200
(
150.053471758
147.124869281
146.011016184
145.483681354
145.116346836
144.821562528
144.559911723
144.311365209
144.066837723
143.821759593
143.573433647
143.320105169
143.060542128
142.793808915
142.519138638
142.235857853
141.943340724
141.640981255
141.328180612
141.004350622
140.668867552
140.32108235
139.960336661
139.585962616
139.197274631
138.79357139
138.374136676
137.938240055
137.485137617
137.014072619
136.524276057
136.014967169
135.485353516
134.934631251
134.36198578
133.76659292
133.147618768
132.504219892
131.835543749
131.140729105
130.418906349
129.669197714
128.890717463
128.082571966
127.243859636
126.373670702
125.471086753
124.535179994
123.565012162
122.559632956
121.518077895
120.439365492
119.322493495
118.166434117
116.970127865
115.732475693
114.45232907
113.128477459
111.759632548
110.344408393
108.88129641
107.36863379
105.80456319
104.18698402
102.513486309
100.781264887
98.9870093452
97.1267597558
95.1957120424
93.1879514724
91.0960888802
88.9107645768
86.6197801712
84.2069491991
81.6501858109
78.9178299248
75.962281548
72.7109641326
69.0101520238
64.2468117276
148.260430218
146.902255322
146.11128156
145.611263626
145.220270569
144.896382062
144.611853828
144.347243374
144.091746193
143.839213859
143.585819036
143.329048109
143.067164007
142.798890234
142.523226322
142.239337417
141.946486101
141.643989538
141.331189278
141.007423466
140.672041857
140.324368966
139.96376105
139.589549959
139.201039687
138.797523191
138.378281417
137.9425821
137.489680045
137.01881753
136.529224552
136.020118804
135.49070596
134.940185833
134.367745786
133.772561642
133.153799227
132.510615064
131.842156629
131.147562765
130.425964009
129.676482809
128.898233747
128.090323624
127.251851423
126.381908104
125.479576211
124.543929159
123.574030211
122.568930983
121.527669373
120.449266844
119.33272483
118.177020126
116.981098934
115.74386927
114.464191356
113.140865519
111.772616942
110.358076598
108.895757407
107.384024174
105.821053219
104.204781599
102.532841642
100.802492772
99.0105195411
97.1530846462
95.2255487612
93.2222271761
91.136051025
88.9580640102
86.6767185012
84.2768786967
81.7381493956
79.0320221716
76.1176986003
72.937344287
69.3881686872
65.2753136932
147.265240123
146.611038891
146.058680862
145.621059506
145.249430907
144.927323234
144.638216312
144.367974267
144.10750208
143.851010863
143.594615609
143.335634595
143.07215575
142.802752072
142.526302451
142.241878236
141.948669772
141.645938461
141.332986
141.009135517
140.673724916
140.326114579
139.965560495
139.591408983
139.202967944
138.799527779
138.380367131
137.944752656
137.491938857
137.021168243
136.531671687
136.022669087
135.49336958
134.942965775
134.370639956
133.775570325
133.156923855
132.513857592
131.845519858
131.151050334
130.429580414
129.680233479
128.902125206
128.0943637
127.256049511
126.386275506
125.484126559
124.548678941
123.578999415
122.57414388
121.53315552
120.455062251
119.33887342
118.1835755
116.98812652
115.751448944
114.472420694
113.14986393
111.782530799
110.369085471
108.908080989
107.397930534
105.836870206
104.22293126
102.553876383
100.82711189
99.0395961977
97.1877308572
95.267201854
93.2727706934
91.1979878076
89.0347904793
86.7730839568
84.3999526066
81.8986756647
79.247393104
76.4181314774
73.3792759342
70.0948497301
66.5418321487
146.715479018
146.352096854
145.952196497
145.583202356
145.245580625
144.937471851
144.652100926
144.381388193
144.119006274
143.860328183
143.601935873
143.341297785
143.076514063
142.806117405
142.528931704
142.243974413
141.950389197
141.647399849
141.33427923
141.010327404
140.674853416
140.327167081
139.96662717
139.592510529
139.204106425
138.800707135
138.38159106
137.946023625
137.493258212
137.022536314
136.53308763
136.024130261
135.494871603
134.944510002
134.372235319
133.777222101
133.158638285
132.515641663
131.847379585
131.152992186
130.431611664
129.682362414
128.904361554
128.096719054
127.258537787
126.388913518
125.486934687
124.551681946
123.582227424
122.577633507
121.536951208
120.459217998
119.343454937
118.188662839
116.993817375
115.757862865
114.479704309
113.158197123
111.792134397
110.380230599
108.921104373
107.413258064
105.855030756
104.244563295
102.579754243
100.858204977
99.0771403301
97.233308366
95.3228561295
93.3411738154
91.2827045103
89.1407189227
86.9069856251
84.5714629991
82.1220623912
79.5446858373
76.824588202
73.9520629522
70.9307096027
67.7977078649
146.381431142
146.149634837
145.848220091
145.537239277
145.232394634
144.940364783
144.661381491
144.39224652
144.129276269
143.869180595
143.60919908
143.347094298
143.081073707
142.809688205
142.531741073
142.246215321
141.9522183
141.648940791
141.335627465
141.011555703
140.676020606
140.328325836
139.967775034
139.593657594
139.205276358
138.801914983
138.382846642
137.94733435
137.494630146
137.023974964
136.534598586
136.025719796
135.496546475
134.946275313
134.374092431
133.779174194
133.160686115
132.517786183
131.849625069
131.155343341
130.434075697
129.684948855
128.90708237
128.099588998
127.261574869
126.392139597
125.490376265
124.555371133
123.58620308
122.581942711
121.541651575
120.464379789
119.349163795
118.195023189
117.000956455
115.765935198
114.488896796
113.168737635
111.804300106
110.394364723
108.93762895
107.432680936
105.877983669
104.271842551
102.612363997
100.897406171
99.124521679
97.2908887204
95.3932278844
93.4277050569
91.3898236129
89.2743191127
87.0750833168
84.7851978024
82.3972421202
79.904207266
77.3018968852
74.5947532981
71.8041374839
68.9807458435
146.178038705
146.002135842
145.760938788
145.493609358
145.216417382
144.939772761
144.668075451
144.401564942
144.138789697
143.877769647
143.616469886
143.353023362
143.085804597
142.813422741
142.534684878
142.248553296
141.954105937
141.650503394
141.33696292
141.012738702
140.677107321
140.329356884
139.968777976
139.594660853
139.206294935
138.802959456
138.383924939
137.94845236
137.49579226
137.025184317
136.535857319
136.027029208
135.497907297
134.94768841
134.375559315
133.78069739
133.162271217
132.519440592
131.851356853
131.157164423
130.435998874
129.686987644
128.909252347
128.101908329
127.264065111
126.394826871
125.49329233
124.558554654
123.589701201
122.585812986
121.545963332
120.469217148
119.354628929
118.201240273
117.008076734
115.774144155
114.498424394
113.179864836
111.817374914
110.409805323
108.955940201
107.454487079
105.904062524
104.303150493
102.65008398
100.943013228
99.17986749
97.3583132332
95.4757106682
93.5290741451
91.5150476606
89.429919739
87.2697242471
85.0305202283
82.7090231486
80.3038815627
77.8181632153
75.2640225276
72.6684084509
70.0784185253
146.054921954
145.899313553
145.693009543
145.456443984
145.200964148
144.937678872
144.67305873
144.409542077
144.147399699
143.885803771
143.623420276
143.358772708
143.090431287
142.817087456
142.537569031
142.250828423
141.955920694
141.651979998
141.338198304
141.013807682
140.678066284
140.330247663
139.96963297
139.595504653
139.20714384
138.803824796
138.384815199
137.949373843
137.496749751
137.026181741
136.536898206
136.02811706
135.499045867
134.948882196
134.376814026
133.782019641
133.163668036
132.520919831
131.852927273
131.158834008
130.43777551
129.688883039
128.911282643
128.10409388
127.266431103
126.397403792
125.496117059
124.561671883
123.593165076
122.589689068
121.550331304
120.474174063
119.360293048
118.207755682
117.01561878
115.782925146
114.508699185
113.191946013
111.831640152
110.426721455
108.976088913
107.478582628
105.932973464
104.337948914
102.692097296
100.993889484
99.2416612678
97.4335989702
95.5677330231
93.6419491635
91.6540332773
89.601779482
87.4832085503
85.2969881783
83.0431875768
80.7245646476
78.3486684879
75.9310979393
73.498729425
71.0909200056
145.98084229
145.830831442
145.644073744
145.427965143
145.188254743
144.935428086
144.676784508
144.416038806
144.154663565
143.892732404
143.629504473
143.36385634
143.094547488
142.820356667
142.54014035
142.252848682
141.957520158
141.65326743
141.339260933
141.014713469
140.678867039
140.330982274
139.970330211
139.596185276
139.207823734
138.804514874
138.385523614
137.950106707
137.497511823
137.026976968
136.537730142
136.028989188
135.499961852
134.949845951
134.377829632
133.783091656
133.164801855
132.522121317
131.85420327
131.160194268
130.439235942
129.6904617
128.91299828
128.105968757
127.268492179
126.399683906
125.498656166
124.56451851
123.596378132
122.593340208
121.554508183
120.478983086
119.365863335
118.214244062
117.02321607
115.791864463
114.519266663
113.204488633
111.846582917
110.444580917
108.997491497
107.504295119
105.96393736
104.375321421
102.737302975
101.048686715
99.3082272465
97.5146387751
95.6666199955
93.7629061334
91.8023650058
89.7841668419
87.7080659968
85.5748751252
83.3872081502
81.1505989574
78.8750841425
76.5772691017
74.2818346384
72.0207893569
145.938565903
145.789117538
145.612700012
145.408958825
145.179422153
144.933708762
144.679342745
144.420697308
144.159982452
143.897879171
143.634071572
143.367701788
143.097678283
142.822852399
142.542107385
142.254395039
141.958743316
141.654249657
141.340068696
141.015398842
140.679469901
140.331532621
139.970850328
139.596692421
139.208327722
138.805025515
138.386047619
137.950649053
137.498076508
137.027567433
136.538349553
136.029640715
135.500648876
134.950572244
134.37859953
133.78391031
133.16567552
132.523058024
131.855213434
131.161290434
130.440429405
129.691767356
128.914436069
128.10756302
127.27027232
126.401685537
125.500922482
124.567101939
123.599342365
122.596762543
121.558482172
120.483622397
119.371306176
118.220658451
117.030806155
115.800877938
114.530003639
113.2173145
111.861941945
110.46301712
109.019668688
107.531023005
105.996204258
104.414335722
102.784544366
101.105969916
99.3777818474
97.5992089953
95.7695884782
93.8884476201
91.9556317547
89.9715077956
87.9372710157
85.8554132109
83.7303812735
81.569471083
79.3839332619
77.1901801183
75.0102570505
72.8703441059
145.919289403
145.769410879
145.597446036
145.39950768
145.174942453
144.932818476
144.680677425
144.423161577
144.162826506
143.900656356
143.63655586
143.369809273
143.099406993
142.824241534
142.543212222
142.255272857
141.95944637
141.654822363
141.340547116
141.01581134
140.679838279
140.331873347
139.97117563
139.597011223
139.208647602
138.805351333
138.386383303
137.950997817
137.498441139
137.027950596
136.538753898
136.030069095
135.50110452
134.951058928
134.379121772
133.784473587
133.166286479
132.52372464
131.855944848
131.162097083
130.441326215
129.692771624
128.915568363
128.108848218
127.271740656
126.403373745
125.502875168
124.569373242
123.601998006
122.599882342
121.562163103
120.487982219
119.376487839
118.226835503
117.038189397
115.809723693
114.540623927
113.230087919
111.877328398
110.481576245
109.042079746
107.558112325
106.028977602
104.454017785
102.832627029
101.164271142
99.4485174627
97.6850794631
95.8738825082
94.0151643075
92.1096171484
90.1586103242
88.1644841663
86.1309926615
84.0638439454
81.9713835241
79.8653353693
77.7614544806
75.679432325
73.6411945156
145.919291888
145.76942684
145.597472942
145.399543813
145.174987043
144.93287069
144.680736337
144.423226359
144.162896462
143.900730909
143.636634548
143.369891737
143.099492967
142.824330834
142.543304741
142.255368547
141.959545236
141.65492446
141.340652549
141.015920266
140.679950922
140.331990008
139.971296704
139.597137219
139.208779214
138.805489293
138.386528534
137.951151454
137.498604575
137.028125375
136.538942028
136.030273034
135.501327243
134.951304048
134.379393665
133.784777545
133.166628882
132.524113232
131.856389193
131.162609134
130.441919992
129.693464146
128.91638039
128.109805003
127.272872869
126.404718627
125.504477922
124.57128874
123.604292871
122.602637461
121.565476663
120.491973388
119.381301238
118.232646635
117.045211205
115.818214446
114.550896751
113.242522426
111.892385581
110.499817183
109.064183025
107.584901297
106.06145102
104.49338638
102.880357399
101.222136687
99.5186569874
97.7700678718
95.9768152342
94.139749621
92.2603024699
90.3407721011
88.3842701487
86.3954212521
84.3807417258
82.3491336309
80.312383515
78.2855095733
76.2864157533
74.3341964278
145.938573415
145.789165797
145.612781337
145.409067971
145.179556787
144.933866174
144.679520123
144.420892188
144.160192758
143.898103186
143.634307916
143.367949392
143.097936356
142.8231204
142.542384992
142.254682114
141.959039879
141.654555883
141.3403849
141.015725496
140.679807674
140.331882406
139.971213278
139.597070083
139.208722075
138.805438741
138.386482441
137.951108785
137.498565182
137.028089916
136.538911797
136.030249963
135.501313937
134.95130384
134.379410724
133.784817014
133.166697071
132.524217842
131.8565396
131.162816726
130.442198606
129.693830627
128.916855237
128.110413138
127.273644563
126.405690636
125.505694866
124.572804782
123.606173752
122.604962974
121.568343626
120.495499256
119.385628465
118.23794799
117.051696215
115.826137215
114.560565448
113.254310831
111.906745386
110.517291667
109.08543771
107.610736341
106.092831429
104.531474834
102.926551884
101.278118745
99.5864634871
97.8521688225
96.0761224634
94.259700962
92.4048788222
90.5143428702
88.5920718143
86.6433218494
84.6750844964
82.6965134937
80.7192826439
78.7577968859
76.8287744216
74.9496569709
145.980855016
145.830913124
145.644211139
145.428149145
145.188481256
144.93569242
144.677081892
144.416365103
144.155015309
143.893106743
143.629899124
143.364269544
143.09497795
142.8208035
142.54060303
142.253326993
141.958014151
141.653777404
141.33978742
141.01525727
140.679429288
140.331564461
139.970934161
139.596813627
139.20847935
138.805201527
138.386245819
137.95086991
137.498322635
137.027843417
136.538661977
136.029998266
135.501062578
134.951055818
134.379169886
133.784588178
133.166486196
132.524032254
131.856388249
131.16271053
130.442150861
129.69385751
128.916976432
128.110652605
127.274031428
126.406260275
125.506490221
124.57387798
123.607588065
122.606795181
121.570686865
120.498466462
119.389356549
118.242602893
117.057478994
115.83329137
114.569385702
113.26515403
111.920042703
110.533564785
109.105310644
107.634968173
106.122337335
104.567358145
102.970145122
101.331010884
99.6505087586
97.9295003
96.1693072945
94.3717431118
92.539262259
90.6751260702
88.7836433071
86.8704158794
84.9426627613
83.0095561754
81.0825372474
79.1755523467
77.3047347135
75.4869999743
146.054940267
145.899430803
145.69320608
145.456706243
145.201285943
144.938053324
144.673478987
144.41000228
144.147894987
143.88633018
143.623974652
143.359352628
143.091034975
142.817713703
142.538217121
142.251498062
141.956611953
141.65269328
141.33893433
141.014567529
140.678851484
140.331060303
139.970475694
139.596380871
139.208057568
138.804781139
138.385820348
137.950435256
137.497876476
137.027384787
136.538190984
136.029515923
135.500570714
134.950557049
134.378667653
133.784086842
133.165991188
132.523550308
131.855927662
131.162281483
130.441765786
129.693531544
128.916728002
128.110504125
127.274010149
126.406399299
125.506829738
124.57446678
123.60848538
122.608072888
121.572432129
120.500784946
119.3923763
118.246479048
117.062399452
115.839483544
114.577124603
113.274772121
111.931942298
110.548230073
109.123326263
107.657035131
106.149295544
104.600207334
103.010062102
101.379400315
99.709056151
98.0002125368
96.2544808853
94.4740032523
92.6615778416
90.8208043302
88.9562640976
87.0737312188
85.1804351004
83.2853593791
81.3995834856
79.5366766716
77.7126501514
75.9449143094
146.178063276
146.002292363
145.761199659
145.493955645
145.216840325
144.94026298
144.66862387
144.402163945
144.13943305
143.878452311
143.617187891
143.353773675
143.086585003
142.814231738
142.535521575
142.249417312
141.95499732
141.651422548
141.337910568
141.013715887
140.678115372
140.33039773
139.969856084
139.595782067
139.207463839
138.804181807
138.385208163
137.949805519
137.497226391
137.026712984
136.537497206
136.028800824
135.499835759
134.949804476
134.3779005
133.783308997
133.165207476
132.522766679
131.855151426
131.161521628
130.441033399
129.692840261
128.916094546
128.109948892
127.273557937
126.406080208
125.506680289
124.574531295
123.608817643
122.608738132
121.573509423
120.502370065
119.39458523
118.249452184
117.06630663
115.844530126
114.583558801
113.282893527
111.94211206
110.560883728
109.138986475
107.676327376
106.172967921
104.629154568
103.045353899
101.422294358
99.7610191736
98.0629500776
96.3299619145
94.5644676817
92.769522286
90.9489427974
89.1074527939
87.2508428755
85.3861741959
83.5220400662
81.6689545406
79.8399979262
78.051201601
76.3212404302
146.381462667
146.149835499
145.848551782
145.537676594
145.232925554
144.940977006
144.662063569
144.392989078
144.130071765
143.870023016
143.610083736
143.348017648
143.082033211
142.810682196
142.532768649
142.247276234
141.953312833
141.650069585
141.336791335
141.012755687
140.67725825
140.32960228
139.969092311
139.595029066
139.206705953
138.803408449
138.384412183
137.948982238
137.496372929
137.025827789
136.536579744
136.027851388
135.498855378
134.948794903
134.37686425
133.782249471
133.164129085
132.521674937
131.854053046
131.160424615
130.439947329
129.691776762
128.915067846
128.108976415
127.272660997
126.405284839
125.506018232
124.574041184
123.608546414
122.608742733
121.573858977
120.503148404
119.395893935
118.251414288
117.069071047
115.848276786
114.588503981
113.289297632
111.950288626
110.571209542
109.151913703
107.692397638
106.192827599
104.653571199
103.075234865
101.458708175
99.8052146112
98.1163707208
96.3942553194
94.641486144
92.861304804
91.0576688657
89.2353524461
87.4000524825
85.5585203404
83.7187498612
81.890362041
80.0855108755
78.3197122903
76.6128221518
146.71551754
146.352345343
145.952601526
145.583731088
145.246217088
144.938200344
144.652907524
144.382261814
144.119938163
143.861311457
143.602965239
143.342369315
143.077625023
142.80726615
142.530117625
142.245197935
141.951651786
141.648703948
141.335627783
141.011724247
140.676307645
140.328694365
139.968200331
139.594132846
139.205791717
138.802466707
138.38343654
137.947968582
137.495318699
137.024731489
136.535440687
136.026669548
135.497631219
134.947529286
134.375558464
133.78090544
133.162749666
132.520263969
131.852615536
131.158967208
130.438478676
129.690307115
128.91360962
128.10754466
127.271273893
126.403964347
125.504790956
124.572939415
123.607609407
122.608018096
121.573404111
120.503032679
119.396201232
118.252245955
117.070549418
115.850549559
114.591750919
113.293735643
111.956178425
110.578864088
109.16170779
107.704778716
106.208328009
104.672821679
103.098978872
101.487816331
99.8406990279
98.1593970018
96.4461479007
94.7037238709
92.9355006098
91.1455245858
89.3385719969
87.5201942315
85.6967554774
83.875472531
82.0646473608
80.2746605309
78.5187272774
76.8155000929
147.265290502
146.611349386
146.059169253
145.62168498
145.250173819
144.928164608
144.639140007
144.368967737
144.108555509
143.852116552
143.595767588
143.336828311
143.073387813
142.804020067
142.527604831
142.243214363
141.950040267
141.647346062
141.334435816
141.010634067
140.675272687
140.327681387
139.967181196
139.593091893
139.204718039
138.801352637
138.382276948
137.946760179
137.4940597
137.023421105
136.534078865
136.025256844
135.496168755
134.946018738
134.374002017
133.779305425
133.161107498
132.518582374
131.850898107
131.157218088
130.436702607
129.688511014
128.911802322
128.105737124
127.269479629
126.402199957
125.503076761
124.571300176
123.606075074
122.606624928
121.572196456
120.502064451
119.395537824
118.251966555
117.070749701
115.851344659
114.59327806
113.2961603
111.959699691
110.583720751
109.168185541
107.713218534
106.219135717
104.686478399
103.116052065
101.508970553
99.8667056307
98.1911411442
96.4846302709
94.7500587392
92.9909000507
91.2112640477
89.415923654
87.6103077411
85.8004333878
83.9926881819
82.1937321779
80.4111236324
78.6519756243
76.9249805528
148.260527948
146.902711155
146.111962299
145.612116502
145.221272505
144.8975123
144.613095385
144.348583183
144.093174052
143.840721722
143.587400545
143.330698174
143.068878394
142.800665151
142.525058022
142.241221814
141.948418237
141.645962754
141.333198109
141.009475647
140.674135865
140.32652925
139.966003837
139.591876254
139.203454825
138.800035923
138.38090245
137.94532257
137.49255538
137.02184799
136.532435485
136.023542048
135.494381656
134.944158738
134.372068907
133.777299923
133.159033235
132.51644181
131.848693836
131.154953627
130.4343826
129.68614066
128.909387847
128.103286137
127.26700145
126.399705989
125.500580938
124.568819514
123.603630366
122.604241505
121.56990478
120.499901297
119.393547638
118.250203044
117.069277772
115.85024303
114.5926428
113.296105999
111.960363699
110.585267716
109.170812318
107.717159625
106.224669177
104.693932174
103.125810675
101.521481979
99.8824877703
98.2107859104
96.5088030129
94.7795132716
93.0264646268
91.2538252535
89.4664000289
87.6696063772
85.8693411992
84.0714708535
82.2815244692
80.5042639436
78.7344912162
76.9426910762
150.053636346
147.125537541
146.01200746
145.484933551
145.117829766
144.823251591
144.561788356
144.313415865
144.069052509
143.824131462
143.575957894
143.322779113
143.063364988
142.796781849
142.522264854
142.239142664
141.946791453
141.644606574
141.331985456
141.008320613
140.673006658
140.325403777
139.96484307
139.590659276
139.202170248
138.798676776
138.379465027
137.943810033
137.490969428
137.020188865
136.530703456
136.021737535
135.492505152
134.942210782
134.370050048
133.775210417
133.156872117
132.514209205
131.846390482
131.152580607
130.431941409
129.68363342
128.90681738
128.100656046
127.26431627
126.396971395
125.49780395
124.566008742
123.600796286
122.601396852
121.567065118
120.49708556
119.390778765
118.247508747
117.06669142
115.847804564
114.590399666
113.294115798
111.958695738
110.584004983
109.170053943
107.717023824
106.225296728
104.695490346
103.128497476
101.525530563
99.8881711361
98.2184266197
96.5187937657
94.7922781089
93.0424848841
91.2736511041
89.4906658852
87.6990480139
85.9048436391
84.1145501029
82.3345883714
80.5697430243
78.7995572742
76.899555278
56.8525613726
53.3004174243
50.9089466255
48.9515304028
47.2795354371
45.8227965889
44.5373298065
43.3934219316
42.3693881087
41.4484659238
40.6172311907
39.8646602432
39.1815345483
38.5600405251
37.9934876708
37.4760998961
37.0028573224
36.5693726009
36.171792992
35.8067203323
35.4711457898
35.1623960271
34.8780879163
34.6160901378
34.3744913437
34.1515725714
33.9457839407
33.7557243423
33.5801243113
33.4178309805
33.2677949822
33.1290591676
33.0007486654
32.8820620983
32.7722636437
32.6706760924
32.5766741088
32.4896776996
32.409144767
32.3345614658
32.2654400573
32.20140704
32.1424492764
32.0880796243
32.0378324119
31.9912868743
31.9481752881
31.9082507316
31.871276957
31.8370319524
31.8053145076
31.7759631107
31.748770549
31.7235622455
31.7001841091
31.6785001709
31.6583642069
31.6396445059
31.6222234954
31.6059923796
31.5908507055
31.5767069354
31.5634773645
31.5510832704
31.539452058
31.5285166247
31.5182155095
31.508491821
31.4992931433
31.490571503
31.4822829433
31.4743868154
31.4668460733
31.4596266391
31.4526974433
31.4460300782
31.4395985008
31.433379058
31.4273496852
31.4214909719
31.415785038
31.4102155246
31.4047674417
31.3994272334
31.3941826031
31.3890221968
31.3839356073
31.3789132543
31.3739467011
31.3690278183
31.3641496385
31.3593056937
31.3544903705
31.3496981046
31.3449227987
31.3401588709
31.3354023008
31.3306481638
31.3258914836
31.3211272207
31.3163521845
31.3115644765
31.3067644547
31.3019720357
31.2971703634
31.2923520839
31.2875211571
31.2827117248
31.2778649976
31.2729781363
31.2680478302
31.2630705586
31.2580438237
31.2529650896
31.2478314409
31.2426392086
31.2373843512
31.2320578271
31.2266366734
31.2210899621
31.215407615
31.2098048079
31.2044391778
31.1992681322
31.19390103
31.1883878146
31.182812536
31.1772146302
31.1716171956
31.1660497608
31.1605435028
31.155136284
31.1498715099
31.1447956924
31.1399582374
31.1354071697
31.1311839195
31.1273293775
31.1238454256
31.1207210746
31.118125058
31.1157421052
31.1135148738
31.1108843186
31.1063036109
31.0957072709
31.0693496288
31.0058235091
30.8641766814
30.5740911456
30.0305044772
29.1006121253
27.6514375239
25.5895712132
22.8883270402
19.6034651773
15.8537826942
11.6084842469
6.59250732521
1.56698353457
60.0339468381
55.9810772787
53.2690644713
51.1167173876
49.3148259717
47.764985251
46.408981087
45.20956999
44.1405652417
43.1823163806
42.3194674238
41.5396554408
40.8327107674
40.1901288037
39.6047092627
39.0702939359
38.5815721764
38.1339332501
37.7233488566
37.3462823203
36.9996129452
36.680576669
36.3867140062
36.1158307943
35.865960306
35.6353370723
35.4223693235
35.2256192274
35.0437843815
34.8756822166
34.720236567
34.5764653791
34.4434721354
34.3204347065
34.2066007534
34.1012778426
34.0038314575
33.913677122
33.830280792
33.7531549883
33.6818584562
33.6159582682
33.5548919583
33.4983418456
33.4460255899
33.3976452088
33.3529051699
33.3115250214
33.2732453722
33.2378265604
33.205042481
33.1746807204
33.1465526735
33.1204846381
33.0963098469
33.073870029
33.0530324923
33.0336703437
33.0156625956
32.9988994232
32.9832813917
32.9687081911
32.9550885844
32.9423410234
32.9303885937
32.9191629371
32.9085988301
32.898637294
32.8892234244
32.880307631
32.8718438133
32.8637897889
32.856106705
32.8487591493
32.8417146922
32.8349434226
32.8284187904
32.822115625
32.8160132126
32.8100896423
32.8043254199
32.7987037292
32.7932086318
32.787826138
32.7825431214
32.7773474845
32.7722286774
32.7671767212
32.7621818557
32.7572359125
32.7523315612
32.7474607333
32.7426178994
32.7377976535
32.7329993421
32.7282142528
32.72343819
32.7186654311
32.7138942867
32.7091309058
32.7043602827
32.6995808823
32.6947844313
32.6899452028
32.685076557
32.6801790425
32.6752501927
32.6702813786
32.6652768489
32.6602397355
32.6551681407
32.6500604011
32.6449149076
32.6397250307
32.6344911019
32.6292128551
32.623889564
32.6185221857
32.6131119052
32.6076704698
32.6022020062
32.5966781463
32.5910912483
32.5852224021
32.5793937766
32.5737211289
32.5680499354
32.5623753555
32.5567246554
32.5511330813
32.54563376
32.5402731376
32.5350959808
32.5301566627
32.5255186612
32.5212377373
32.5173786717
32.5139968163
32.5110561596
32.5086992627
32.5068390404
32.5053840204
32.5040584077
32.5020965216
32.4974391814
32.4850266546
32.4531670475
32.3771913308
32.2112167691
31.8786479455
31.2683602162
30.2445770537
28.6774011047
26.4832054025
23.6471784148
20.2296278223
16.347336546
11.9846625728
6.88034380183
1.70008230883
62.2414098053
58.3079062163
55.4407333047
53.1568245262
51.2549279798
49.6285684468
48.2127111655
46.9653307317
45.8569916255
44.865814967
43.9748878335
43.1707389092
42.4423976089
41.7807724277
41.1782275665
40.6282779662
40.1253648054
39.6646866143
39.2420667686
38.8538513785
38.4968258018
38.1681496506
37.8653001696
37.5860299388
37.328326966
37.0903860037
36.8705804013
36.6674411944
36.4796378992
36.3059623207
36.1453150336
35.9966924914
35.8591783704
35.7319320649
35.6141839992
35.5052254694
35.4044058201
35.3111237663
35.2248254104
35.1449966136
35.0711635403
35.0028892795
34.9397005213
34.881106578
34.8269226102
34.7768267719
34.7304999195
34.6876519997
34.6480163091
34.6113465633
34.5774141543
34.5460086111
34.5169315964
34.4900005481
34.4650443691
34.4418954922
34.4204119502
34.4004608093
34.3819167976
34.3646625536
34.3485843708
34.3335888013
34.3195842046
34.3064870191
34.2942169294
34.2827031485
34.2718779884
34.2616803481
34.2520529928
34.242944451
34.234306391
34.2260952943
34.2182704694
34.210795215
34.203635943
34.1967612547
34.1901432609
34.1837566617
34.1775753264
34.171579841
34.1657508759
34.1600704346
34.1545222494
34.1490914853
34.1437649639
34.1385301659
34.1333759951
34.1282922823
34.1232694782
34.1182984771
34.1133727109
34.1084846321
34.1036281881
34.0987982993
34.0939813084
34.089178099
34.0843840547
34.0795916561
34.0747937235
34.069978033
34.0651484477
34.0602999873
34.0554118315
34.0505118273
34.0455971478
34.040661277
34.0357023936
34.0307149452
34.0256934915
34.0206344944
34.015535778
34.0103946687
34.0052109284
33.9999798923
33.9947003295
33.9893716711
33.9839930261
33.9785653765
33.9730875337
33.9675636335
33.9619959234
33.9563715187
33.95070635
33.9450442251
33.9393890455
33.9336441312
33.9277934435
33.9219471265
33.9161959151
33.9105589523
33.9050496234
33.8997157065
33.8946069474
33.8897825218
33.8853145843
33.8812708346
33.8777392688
33.8748265843
33.8723942003
33.8705882884
33.8694218588
33.8687143281
33.8680858482
33.8665114252
33.8613649368
33.8465341991
33.8083525368
33.7188815778
33.5275119015
33.1518476592
32.475532794
31.3607709473
29.6812022031
27.3622771829
24.3993081216
20.8553300175
16.8438007966
12.3634651157
7.16784047137
1.83098413782
64.0456132321
60.3208521257
57.4168551828
55.0617114986
53.0917040319
51.4074929663
49.9439113441
48.6570668074
47.5156977635
46.4964602707
45.5813249482
44.7559843028
44.0088448541
43.3303505381
42.7125172643
42.1485976683
41.632833595