/*--------------------------------*- C++ -*----------------------------------*\
| =========                 |                                                 |
| \\      /  F ield         | OpenFOAM: The Open Source CFD Toolbox           |
|  \\    /   O peration     | Version:  2106                                  |
|   \\  /    A nd           | Website:  www.openfoam.com                      |
|    \\/     M anipulation  |                                                 |
\*---------------------------------------------------------------------------*/
FoamFile
{
    version     2.0;
    format      ascii;
    arch        "LSB;label=32;scalar=64";
    class       surfaceScalarField;
    location    "0.3";
    object      phi;
}
// * * * * * * * * * * * * * * * * * * * * * * * * * * * * * * * * * * * * * //

dimensions      [0 3 -1 0 0 0 0];

oriented        oriented;

internalField   nonuniform List<scalar> 
22100
(
3.38461205694e-05
1.61538794234e-05
2.24572105988e-05
1.13889102949e-05
1.62585541384e-05
6.19865675997e-06
1.27977775465e-05
3.46077687401e-06
1.08046440393e-05
1.99313377886e-06
9.60459138518e-06
1.20005293646e-06
8.85132398734e-06
7.53267676906e-07
8.36435552882e-06
4.86968735936e-07
8.04433799705e-06
3.20017803581e-07
7.83284354574e-06
2.11494719721e-07
7.69340072058e-06
1.39443093446e-07
7.60224416365e-06
9.11568250544e-08
7.54348170447e-06
5.8762731785e-08
7.50634510595e-06
3.71368789802e-08
7.48350590963e-06
2.28394888207e-08
7.46998539477e-06
1.35208178096e-08
7.4624210748e-06
7.56462779509e-09
7.458553352e-06
3.86803486911e-09
7.45683470777e-06
1.71896150034e-09
7.45642837031e-06
4.06660928468e-10
7.45677850433e-06
-3.49803306181e-10
7.45746501721e-06
-6.86172998576e-10
7.45822370943e-06
-7.58346075464e-10
7.45894937637e-06
-7.25316092749e-10
7.45959406388e-06
-6.44335848773e-10
7.46013839254e-06
-5.43975077583e-10
7.46058091546e-06
-4.42168724611e-10
7.46093008189e-06
-3.48815639155e-10
7.46119879294e-06
-2.68368649901e-10
7.46140113005e-06
-2.02008491926e-10
7.46155046448e-06
-1.49020122003e-10
7.46165851054e-06
-1.07749044257e-10
7.46173498935e-06
-7.61979835869e-11
7.46178802864e-06
-5.27745168861e-11
7.46182157966e-06
-3.33019968036e-11
7.46184062961e-06
-1.88250360804e-11
7.46184994807e-06
-9.11093812565e-12
7.46185297334e-06
-2.82786340938e-12
7.46185164601e-06
1.51259800981e-12
7.46184710248e-06
4.71206087365e-12
7.46184027563e-06
6.97316556959e-12
7.46183177104e-06
8.6267611499e-12
7.46182196247e-06
9.90864587865e-12
7.46181102855e-06
1.10099744327e-11
7.46179898168e-06
1.21013828e-11
7.4617857068e-06
1.33150274692e-11
7.46177098902e-06
1.47528992454e-11
7.46175451206e-06
1.65127555089e-11
7.46173585318e-06
1.86946683892e-11
7.46171448243e-06
2.14074469626e-11
7.46168978105e-06
2.47206758306e-11
7.46166106934e-06
2.87391285557e-11
7.4616275424e-06
3.35485814038e-11
7.46158833968e-06
3.92165301185e-11
7.46154258507e-06
4.57554116415e-11
7.46148945895e-06
5.3118872324e-11
7.46142829329e-06
6.11584294581e-11
7.46135896595e-06
6.93214842108e-11
7.46128217369e-06
7.6795590202e-11
7.46120036089e-06
8.18335656503e-11
7.46111980487e-06
8.05781296018e-11
7.46105268174e-06
6.71526305979e-11
7.46100668785e-06
4.60226334291e-11
7.46100103064e-06
5.68305596297e-12
7.46107161777e-06
-7.05453524691e-11
7.46127666773e-06
-2.05012696388e-10
7.46171059875e-06
-4.33933741274e-10
7.46252343806e-06
-8.12872063106e-10
7.46395041149e-06
-1.42704483481e-09
7.46634700535e-06
-2.39671233521e-09
7.4701628139e-06
-3.81596496256e-09
7.476608245e-06
-6.44561962729e-09
7.4873758469e-06
-1.07678231184e-08
7.50554797941e-06
-1.81724208488e-08
7.53873242309e-06
-3.31848101633e-08
7.60795133722e-06
-6.9219330985e-08
7.77463201359e-06
-1.6668108489e-07
8.22960508168e-06
-4.54973463643e-07
9.69745235404e-06
-1.46784771246e-06
-5.45235251663e-06
1.51498043815e-05
5.02175951416e-05
1.59362846508e-05
4.42441124179e-05
1.73623935691e-05
3.77795027368e-05
1.26632669481e-05
3.26461456779e-05
8.59413444858e-06
2.89380939513e-05
5.70118600655e-06
2.63596239383e-05
3.77852345594e-06
2.4587519904e-05
2.52537220835e-06
2.3373478222e-05
1.70101091009e-06
2.25435295539e-05
1.14996696072e-06
2.19782212584e-05
7.76803502838e-07
2.15955191329e-05
5.22145709913e-07
2.13387429842e-05
3.47933470378e-07
2.11685018942e-05
2.29004331432e-07
2.10573447346e-05
1.48294565191e-07
2.09861572895e-05
9.40274776112e-08
2.09416853962e-05
5.79932647799e-08
2.09148040831e-05
3.44465043514e-08
2.0899305495e-05
1.93671973059e-08
2.08910822242e-05
9.94281944763e-09
2.08872824876e-05
4.20699877207e-09
2.08862139529e-05
7.1934815521e-10
2.08864601925e-05
-9.31787504531e-10
2.08873321149e-05
-1.62964193826e-09
2.08884720885e-05
-1.86466052979e-09
2.08896458876e-05
-1.81749684171e-09
2.08907293467e-05
-1.6267904907e-09
2.08916674036e-05
-1.37959008273e-09
2.08924453804e-05
-1.12617924071e-09
2.08930710395e-05
-8.93446417353e-10
2.08935636022e-05
-6.94019810834e-10
2.08939478413e-05
-5.32735984796e-10
2.08942497374e-05
-4.09145988752e-10
2.08944610541e-05
-2.87042382753e-10
2.08946084326e-05
-1.99710724113e-10
2.08947091016e-05
-1.33557475914e-10
2.08947747535e-05
-8.40862241426e-11
2.08948155573e-05
-4.95529778106e-11
2.08948396808e-05
-2.66229935447e-11
2.08948519353e-05
-1.04514696491e-11
2.08948552564e-05
1.6428537225e-12
2.08948520618e-05
1.03822475481e-11
2.08948440134e-05
1.68483295479e-11
2.08948322523e-05
2.18036768456e-11
2.08948175e-05
2.58656884381e-11
2.08948001358e-05
2.95472524883e-11
2.08947803012e-05
3.32151883023e-11
2.08947579906e-05
3.71302799316e-11
2.08947330785e-05
4.14898920256e-11
2.08947053567e-05
4.64677701786e-11
2.08946745644e-05
5.22536250077e-11
2.08946404803e-05
5.88525219138e-11
2.08946029665e-05
6.62957362901e-11
2.08945620233e-05
7.45149557703e-11
2.08945179553e-05
8.32818138152e-11
2.08944716229e-05
9.2072707068e-11
2.08944248245e-05
9.99083488202e-11
2.08943808515e-05
1.05141085875e-10
2.08943456592e-05
1.04539361675e-10
2.08943287056e-05
9.37804947656e-11
2.08943452341e-05
6.53428625031e-11
2.0894422069e-05
3.77173218431e-12
2.08946080459e-05
-1.18783575838e-10
2.08949715127e-05
-3.17372256023e-10
2.08956309495e-05
-6.53683116919e-10
2.08966946973e-05
-1.13426309801e-09
2.08983391645e-05
-1.84947601588e-09
2.09009221516e-05
-3.01698988472e-09
2.09049915144e-05
-4.88239134846e-09
2.09114164139e-05
-7.85217677699e-09
2.09216205527e-05
-1.26011605087e-08
2.09380941598e-05
-2.02899414797e-08
2.09649837874e-05
-3.33356765328e-08
2.10092294363e-05
-5.501398147e-08
2.10840060343e-05
-9.29496304395e-08
2.12152436945e-05
-1.64423195471e-07
2.14558588298e-05
-3.09835238431e-07
2.19137268341e-05
-6.24549794649e-07
2.28008064885e-05
-1.34205376909e-06
2.44450072255e-05
-3.11204937415e-06
-7.03934217054e-06
2.60319967751e-05
5.35171056278e-05
1.24191793243e-05
5.2934969138e-05
1.7944530561e-05
4.96538413925e-05
1.59443951371e-05
4.58401831608e-05
1.24077931351e-05
4.24400945573e-05
9.10127505042e-06
3.97291749912e-05
6.48944346615e-06
3.76873088955e-05
4.56723873714e-06
3.61976664457e-05
3.19065378857e-06
3.51326161884e-05
2.21501764524e-06
3.43823715148e-05
1.52704860272e-06
3.38606309166e-05
1.04388673677e-06
3.35023510709e-05
7.06213752121e-07
3.32596065816e-05
4.71749268856e-07
3.30975967078e-05
3.10304900921e-07
3.29913410814e-05
2.00283577768e-07
3.29230996634e-05
1.26235165348e-07
3.28804121774e-05
7.71344802975e-08
3.28546275049e-05
4.51523713301e-08
3.28398008679e-05
2.4769970626e-08
3.2831874832e-05
1.21335628031e-08
3.28280058757e-05
4.58884545608e-09
3.28270076841e-05
6.69532248901e-11
3.28271889347e-05
-1.81034228767e-09
3.28280378099e-05
-2.71298508444e-09
3.28291540313e-05
-2.93316712912e-09
3.28303017121e-05
-2.7739228877e-09
3.28313580991e-05
-2.43543577573e-09
3.283226888e-05
-2.03643358457e-09
3.28330192014e-05
-1.64326045296e-09
3.28336151452e-05
-1.28947809473e-09
3.28340716581e-05
-9.88790178097e-10
3.28344068725e-05
-7.43923387762e-10
3.28346734462e-05
-5.53202282123e-10
3.28348899613e-05
-4.15842098653e-10
3.2835037281e-05
-2.80523998879e-10
3.28351366026e-05
-1.83074185272e-10
3.28352025378e-05
-1.15174661474e-10
3.28352445059e-05
-6.83065949052e-11
3.2835269382e-05
-3.50775037605e-11
3.28352811316e-05
-9.8917632846e-12
3.2835283317e-05
8.38114845643e-12
3.28352784332e-05
2.18847356274e-11
3.28352683014e-05
3.2054678656e-11
3.28352541537e-05
4.01027246023e-11
3.28352367557e-05
4.7019329434e-11
3.2835216575e-05
5.34590657395e-11
3.28351939173e-05
5.98498425086e-11
3.28351689802e-05
6.64831166382e-11
3.28351418731e-05
7.36217005245e-11
3.28351126027e-05
8.15594363224e-11
3.28350814921e-05
9.00057980465e-11
3.28350491309e-05
9.86942059855e-11
3.28350165407e-05
1.07126777551e-10
3.28349854933e-05
1.14332008863e-10
3.28349589895e-05
1.18568591041e-10
3.28349417319e-05
1.17152169786e-10
3.28349406747e-05
1.0619163888e-10
3.28349672884e-05
7.79334372175e-11
3.28350388646e-05
2.22201013307e-11
3.28351851042e-05
-8.08717585526e-11
3.28354573752e-05
-2.6846362907e-10
3.28359445572e-05
-6.05920649839e-10
3.28366610102e-05
-1.03374899056e-09
3.28377017777e-05
-1.69438807115e-09
3.28393248171e-05
-2.7572874382e-09
3.28419061133e-05
-4.43079950826e-09
3.28459494947e-05
-7.06044153481e-09
3.28522692139e-05
-1.12022686798e-08
3.28621781182e-05
-1.77613102456e-08
3.28778404452e-05
-2.8263752943e-08
3.29029165005e-05
-4.53663082834e-08
3.29427572298e-05
-7.31767745184e-08
3.30071919328e-05
-1.19449126812e-07
3.31132031754e-05
-1.98961396872e-07
3.3289804999e-05
-3.41025586989e-07
3.3585204548e-05
-6.05235369961e-07
3.4070489239e-05
-1.10983513275e-06
3.48118105549e-05
-2.0833758733e-06
3.5672988635e-05
-3.97322853777e-06
-7.10797599752e-06
3.57416202403e-05
5.35105667546e-05
8.9086128438e-06
5.55742230666e-05
1.58808747466e-05
5.52424838226e-05
1.62761348081e-05
5.35977877565e-05
1.40524896394e-05
5.15418499587e-05
1.11572132726e-05
4.95802826487e-05
8.45101120597e-06
4.79243540704e-05
6.22316773752e-06
4.66181426341e-05
4.49686564553e-06
4.56304702681e-05
3.20269043084e-06
4.49051217568e-05
2.25239753285e-06
4.43840950088e-05
1.56491390413e-06
4.401669931e-05
1.07360987762e-06
4.37619732821e-05
7.26475735977e-07
4.35882751552e-05
4.84003478967e-07
4.34718762889e-05
3.16682905548e-07
4.33953667246e-05
2.02745202621e-07
4.33461969659e-05
1.26304721865e-07
4.33154598863e-05
7.58899467224e-08
4.3296924066e-05
4.33063009047e-08
4.32862985589e-05
2.2759590662e-08
4.32806962958e-05
1.019163822e-08
4.32778892111e-05
2.87457402271e-09
4.32770619676e-05
-9.82558515808e-10
4.32772804322e-05
-2.93090751382e-09
4.32779685377e-05
-3.62073444648e-09
4.3278832151e-05
-3.63700533097e-09
4.32797054972e-05
-3.30826119183e-09
4.32805034552e-05
-2.83388398344e-09
4.32811896702e-05
-2.32898404126e-09
4.32817559257e-05
-1.85526263186e-09
4.328220906e-05
-1.44147494796e-09
4.32825617584e-05
-1.09619678069e-09
4.32828237774e-05
-8.14821469443e-10
4.3282999403e-05
-5.91088555913e-10
4.32831326911e-05
-4.13455276212e-10
4.32832182899e-05
-2.68340145418e-10
4.32832725275e-05
-1.69109103304e-10
4.3283312549e-05
-1.08059856601e-10
4.32833371604e-05
-5.94533562659e-11
4.32833493633e-05
-2.18897676155e-11
4.32833525786e-05
5.34016846654e-12
4.3283348767e-05
2.5841274186e-11
4.32833396266e-05
4.1307504301e-11
4.3283326332e-05
5.3489374417e-11
4.32833095481e-05
6.38891358713e-11
4.32832897067e-05
7.33764029026e-11
4.32832671581e-05
8.24711589668e-11
4.32832421841e-05
9.15057404895e-11
4.32832151548e-05
1.00692424376e-10
4.32831866498e-05
1.10090548805e-10
4.32831573199e-05
1.193630384e-10
4.32831281274e-05
1.27907513569e-10
4.32831005411e-05
1.34727079699e-10
4.32830766731e-05
1.38211887069e-10
4.32830594577e-05
1.35793499548e-10
4.32830533063e-05
1.2330782031e-10
4.32830662014e-05
9.33011807837e-11
4.32831101497e-05
3.39860165096e-11
4.32832043839e-05
-7.19930310356e-11
4.32833658566e-05
-2.42321214663e-10
4.32836058135e-05
-5.08385094876e-10
4.32840484528e-05
-1.04852344798e-09
4.32848185255e-05
-1.80378830073e-09
4.32860705905e-05
-2.94641512686e-09
4.32880120996e-05
-4.69878987647e-09
4.32909927592e-05
-7.41152421005e-09
4.32955720478e-05
-1.16398392594e-08
4.33026284292e-05
-1.82587972021e-08
4.3313543844e-05
-2.86769181191e-08
4.3330475987e-05
-4.51961361806e-08
4.33567337249e-05
-7.16243385753e-08
4.33978869464e-05
-1.14330359028e-07
4.34627859787e-05
-1.84348611877e-07
4.3565153241e-05
-3.01329190211e-07
4.37249400654e-05
-5.00812957922e-07
4.39667366193e-05
-8.47032392409e-07
4.43071966207e-05
-1.45029563799e-06
4.47075959869e-05
-2.48377580176e-06
4.49269788482e-05
-4.19261181748e-06
-6.57882507513e-06
4.43978259376e-05
5.27351382835e-05
6.17347482723e-06
5.5730935255e-05
1.28850782762e-05
5.73114755497e-05
1.46955949397e-05
5.76109935349e-05
1.37529720918e-05
5.71335248581e-05
1.16346823727e-05
5.63194708636e-05
9.26506562917e-06
5.54489912427e-05
7.0936477824e-06
5.46629812476e-05
5.28287606358e-06
5.40136862592e-05
3.85198583964e-06
5.35061555095e-05
2.75992870271e-06
5.31242601888e-05
1.9468096452e-06
5.28449912676e-05
1.35287922705e-06
5.26454456744e-05
9.26021769171e-07
5.25057221087e-05
6.23727493007e-07
5.24097280416e-05
4.12677431274e-07
5.23450227534e-05
2.67450959716e-07
5.23022856684e-05
1.69042289402e-07
5.22746992521e-05
1.03476860128e-07
5.22573754538e-05
6.0630610982e-08
5.22468675004e-05
3.32680668751e-08
5.22407684953e-05
1.62911726708e-08
5.22374602492e-05
6.18335574345e-09
5.22359621452e-05
5.16086235707e-10
5.22354546791e-05
-2.42289964508e-09
5.22355200515e-05
-3.68556853487e-09
5.22358658801e-05
-3.98230261981e-09
5.22363204491e-05
-3.76230840273e-09
5.22367871218e-05
-3.30004624697e-09
5.22372147942e-05
-2.75616479019e-09
5.22375807455e-05
-2.22074171735e-09
5.22378782785e-05
-1.73855553402e-09
5.22381101822e-05
-1.32767075495e-09
5.22382867464e-05
-9.9097328104e-10
5.22384198844e-05
-7.23833955992e-10
5.22385204807e-05
-5.13682474396e-10
5.22386053334e-05
-3.52854487022e-10
5.22386710523e-05
-2.34523977067e-10
5.22387135461e-05
-1.50285551645e-10
5.22387464658e-05
-9.21371344267e-11
5.22387620344e-05
-3.72524143414e-11
5.22387674122e-05
1.37034887124e-13
5.22387651765e-05
2.82196467042e-11
5.22387572656e-05
4.93331685944e-11
5.22387450254e-05
6.58213840939e-11
5.22387293362e-05
7.96682598901e-11
5.22387107633e-05
9.20235161313e-11
5.22386898066e-05
1.03491360231e-10
5.22386671839e-05
1.14161841077e-10
5.22386437162e-05
1.24192202083e-10
5.2238617621e-05
1.36223022729e-10
5.22385905937e-05
1.46431817599e-10
5.22385637362e-05
1.5480311789e-10
5.22385386187e-05
1.59874850546e-10
5.22385178002e-05
1.59056010794e-10
5.22385064648e-05
1.47153093718e-10
5.2238514963e-05
1.1482412124e-10
5.22385453736e-05
6.29086695143e-11
5.22386205235e-05
-4.11341050733e-11
5.22387398289e-05
-1.91262881362e-10
5.22389325602e-05
-4.34999695953e-10
5.22392692751e-05
-8.45043319663e-10
5.22397847695e-05
-1.56395316856e-09
5.22405551194e-05
-2.57411761816e-09
5.22417127507e-05
-4.10405619548e-09
5.22434608222e-05
-6.44688444988e-09
5.22461005135e-05
-1.00512650898e-08
5.22500835623e-05
-1.56229961598e-08
5.2256100912e-05
-2.4276311197e-08
5.22652111982e-05
-3.77873965658e-08
5.22790316575e-05
-5.90168233029e-08
5.23000201208e-05
-9.26130645057e-08
5.23318924051e-05
-1.46202963484e-07
5.23799922935e-05
-2.32448904173e-07
5.2451246798e-05
-3.7258418724e-07
5.25525211856e-05
-6.02087875701e-07
5.26843629726e-05
-9.78874667632e-07
5.28245489161e-05
-1.59048226318e-06
5.28915930834e-05
-2.55082084445e-06
5.26730234164e-05
-3.97404238642e-06
-5.76987288801e-06
5.18640698578e-05
5.19834867435e-05
4.18998834674e-06
5.50586647739e-05
9.8099007469e-06
5.76386144586e-05
1.21156456773e-05
5.93259048734e-05
1.20656821142e-05
6.02280173651e-05
1.07325703033e-05
6.05929290089e-05
8.90015441209e-06
6.06482863806e-05
7.03829083259e-06
6.0553192365e-05
5.37797049783e-06
6.04029582269e-05
4.00222039396e-06
6.02479181541e-05
2.91496919053e-06
6.01107930602e-05
2.08393515665e-06
5.99990339816e-05
1.46463873317e-06
5.99125192609e-05
1.01253692653e-06
5.98479278326e-05
6.88319367414e-07
5.98010247361e-05
4.59580980881e-07
5.97677405647e-05
3.00735597258e-07
5.97445996976e-05
1.92183635907e-07
5.97288216497e-05
1.19255400622e-07
5.97182740103e-05
7.11787583215e-08
5.97113683414e-05
4.01742581492e-08
5.97069495254e-05
2.07105211445e-08
5.97042161657e-05
8.91725545166e-09
5.97026076708e-05
2.12512365296e-09
5.97017036652e-05
-1.5183541585e-09
5.97012458863e-05
-3.22725377665e-09
5.97010568666e-05
-3.7927549072e-09
5.97010210696e-05
-3.72599309305e-09
5.97010658337e-05
-3.34430527749e-09
5.97011474325e-05
-2.83727776262e-09
5.9701240199e-05
-2.31303820394e-09
5.97013302557e-05
-1.82816107467e-09
5.97014109858e-05
-1.40796907863e-09
5.97014809654e-05
-1.0605407619e-09
5.9701540798e-05
-7.83267588226e-10
5.97015912797e-05
-5.63791859461e-10
5.97016312972e-05
-3.92531900431e-10
5.97016592821e-05
-2.62205535729e-10
5.97016747552e-05
-1.65492372975e-10
5.97016732974e-05
-9.04454764842e-11
5.97016654415e-05
-2.91943671727e-11
5.97016590256e-05
6.72079559809e-12
5.97016499576e-05
3.74338661004e-11
5.97016397029e-05
5.97074407136e-11
5.97016282506e-05
7.73692937644e-11
5.9701614541e-05
9.34623535842e-11
5.97015984167e-05
1.08216070389e-10
5.97015799247e-05
1.22024023553e-10
5.97015590337e-05
1.35083677758e-10
5.97015358728e-05
1.47376282978e-10
5.97015134972e-05
1.58623121007e-10
5.97014918722e-05
1.68077960898e-10
5.97014722521e-05
1.74441087377e-10
5.97014563266e-05
1.75815929957e-10
5.97014457118e-05
1.69689949352e-10
5.97014397293e-05
1.53164097323e-10
5.97014305545e-05
1.24020617733e-10
5.97014346985e-05
5.87930283081e-11
5.97014464005e-05
-5.27978767888e-11
5.9701527494e-05
-2.72306943058e-10
5.97017145054e-05
-6.2198665816e-10
5.97020127101e-05
-1.14322882037e-09
5.97023974403e-05
-1.94867854478e-09
5.97029728568e-05
-3.14955413246e-09
5.97038214587e-05
-4.95270123565e-09
5.97050570415e-05
-7.6825061889e-09
5.97068443814e-05
-1.18386512523e-08
5.97094212542e-05
-1.81999235654e-08
5.97131312378e-05
-2.79863959223e-08
5.97184634987e-05
-4.31198118728e-08
5.97260981637e-05
-6.66516906078e-08
5.97369360996e-05
-1.03451253712e-07
5.97520388601e-05
-1.6130603953e-07
5.97722426599e-05
-2.52653121187e-07
5.9796954294e-05
-3.97296385831e-07
5.98210153289e-05
-6.26149504434e-07
5.98275480942e-05
-9.85407956351e-07
5.97745071553e-05
-1.53744183856e-06
5.95739608896e-05
-2.35027542814e-06
5.9068063632e-05
-3.46814532974e-06
-4.79836084255e-06
5.80965508863e-05
5.14373056392e-05
2.75268296614e-06
5.42658213664e-05
6.98138552248e-06
5.72496444645e-05
9.13182299881e-06
5.97900292642e-05
9.5252977509e-06
6.17201301858e-05
8.80246980344e-06
6.30883055641e-05
7.53197945929e-06
6.40167195526e-05
6.10987726585e-06
6.46292397753e-05
4.76545068922e-06
6.50258071592e-05
3.60565342357e-06
6.52790821622e-05
2.66169460119e-06
6.54389776452e-05
1.92404009233e-06
6.55386949214e-05
1.36492188329e-06
6.559993392e-05
9.51298361983e-07
6.56367492135e-05
6.51504515206e-07
6.56582008104e-05
4.38129835124e-07
6.56701095511e-05
2.8882731911e-07
6.56761993297e-05
1.86094333277e-07
6.56788361991e-05
1.16619021174e-07
6.56795072224e-05
7.05082408091e-08
6.56791316242e-05
4.05503800903e-08
6.56782648526e-05
2.15778310186e-08
6.56772345685e-05
9.94808674715e-09
6.56762259504e-05
3.13428881809e-09
6.56753172905e-05
-6.09152600293e-10
6.56745492134e-05
-2.45864110993e-09
6.56739214618e-05
-3.16447575372e-09
6.56734231563e-05
-3.22717194138e-09
6.567303683e-05
-2.9574763915e-09
6.5672743491e-05
-2.54345331765e-09
6.56725249733e-05
-2.09405142421e-09
6.56723651695e-05
-1.66789775454e-09
6.56722504028e-05
-1.29275844236e-09
6.56721685345e-05
-9.78245696636e-10
6.56721089458e-05
-7.23275463093e-10
6.56720658583e-05
-5.20331000899e-10
6.56720350372e-05
-3.61370177287e-10
6.56720103502e-05
-2.37214196481e-10
6.56719891278e-05
-1.44005076472e-10
6.56719744814e-05
-7.55682366994e-11
6.56719730046e-05
-2.75202517573e-11
6.56719717037e-05
8.18932914971e-12
6.56719645415e-05
4.47360962063e-11
6.56719546494e-05
6.97211656194e-11
6.56719422928e-05
8.9821609777e-11
6.5671928368e-05
1.07464837551e-10
6.5671912899e-05
1.23748552963e-10
6.56718957216e-05
1.39229350882e-10
6.56718767832e-05
1.54044003495e-10
6.56718566346e-05
1.67541498898e-10
6.56718372909e-05
1.77983220843e-10
6.56718176485e-05
1.87741295696e-10
6.56717982489e-05
1.93869906101e-10
6.5671780218e-05
1.93884314754e-10
6.56717654334e-05
1.84512209123e-10
6.56717575585e-05
1.61073807164e-10
6.56717640663e-05
1.17565269304e-10
6.56717710824e-05
5.18170305225e-11
6.56718016481e-05
-8.33208732869e-11
6.56718691782e-05
-3.39787151945e-10
6.56719659829e-05
-7.18763368949e-10
6.56721146203e-05
-1.29187993948e-09
6.56723218588e-05
-2.15593461134e-09
6.56726040976e-05
-3.43179250446e-09
6.56729778082e-05
-5.32641956069e-09
6.56734537937e-05
-8.15849132399e-09
6.56740294784e-05
-1.24143459903e-08
6.56746745336e-05
-1.88450234788e-08
6.56753030283e-05
-2.86149735358e-08
6.56757134961e-05
-4.35304260844e-08
6.56754778789e-05
-6.64162793745e-08
6.56737267459e-05
-1.01700380405e-07
6.56687255324e-05
-1.56305149281e-07
6.56569387077e-05
-2.40866759567e-07
6.56312365376e-05
-3.71594842085e-07
6.55774670045e-05
-5.7238068387e-07
6.54683963794e-05
-8.76337946794e-07
6.52548565451e-05
-1.32390253182e-06
6.48567999415e-05
-1.95221956726e-06
6.41617549421e-05
-2.77310073976e-06
-3.71611753115e-06
6.30795110359e-05
5.10850426248e-05
1.66764059738e-06
5.36118453478e-05
4.45458330563e-06
5.66873177032e-05
6.05635106221e-06
5.96894481663e-05
6.52316772577e-06
6.2299729218e-05
6.19218917691e-06
6.44136912274e-05
5.41801787346e-06
6.60471878225e-05
4.47638109365e-06
6.72686198267e-05
3.54401910161e-06
6.81598993344e-05
2.71437433105e-06
6.87977664238e-05
2.02382792774e-06
6.92467513201e-05
1.4750556203e-06
6.95579707041e-05
1.05370292864e-06
6.97704379635e-05
7.38831537607e-07
6.99131816505e-05
5.08761270497e-07
7.00073934322e-05
3.43918504493e-07
7.00683037239e-05
2.27917491978e-07
7.01067065323e-05
1.47692005673e-07
7.01301496527e-05
9.3176397383e-08
7.01438396202e-05
5.68187858376e-08
7.01513165824e-05
3.30739483525e-08
7.01549499299e-05
1.7945029031e-08
7.01562985794e-05
8.59999017709e-09
7.01563713287e-05
3.06209122967e-09
7.01557801212e-05
-1.74007103449e-11
7.01549200765e-05
-1.59805857478e-09
7.01539972757e-05
-2.24114723249e-09
7.0153129427e-05
-2.35880824687e-09
7.0152370188e-05
-2.19773703135e-09
7.01517367645e-05
-1.90954229022e-09
7.01512262953e-05
-1.5831142195e-09
7.01508258594e-05
-1.26699776748e-09
7.01505184994e-05
-9.84945407626e-10
7.01502865721e-05
-7.45885354083e-10
7.01501139107e-05
-5.5020515989e-10
7.01499875162e-05
-3.93558935764e-10
7.01498967362e-05
-2.70249506314e-10
7.01498344704e-05
-1.74649293248e-10
7.01497932602e-05
-1.02538892518e-10
7.01497650359e-05
-4.71246337071e-11
7.01497353575e-05
2.34742213297e-12
7.01497122447e-05
3.14618543802e-11
7.01496994825e-05
5.76374503433e-11
7.01496892158e-05
8.01046965204e-11
7.0149679524e-05
9.96124520694e-11
7.01496696555e-05
1.17404057545e-10
7.01496592409e-05
1.3422176907e-10
7.01496481377e-05
1.50376607466e-10
7.01496363884e-05
1.65834846925e-10
7.01496237661e-05
1.80204210198e-10
7.01496089177e-05
1.92861597067e-10
7.01495937939e-05
2.0288463662e-10
7.01495792016e-05
2.08484822136e-10
7.01495659064e-05
2.07218261073e-10
7.01495544954e-05
1.95963449462e-10
7.01495445821e-05
1.71034952356e-10
7.01495336257e-05
1.28594615655e-10
7.014952467e-05
6.08327957242e-11
7.01495151813e-05
-7.37939991509e-11
7.0149523832e-05
-3.48402028191e-10
7.01495450858e-05
-7.39998538086e-10
7.01495665017e-05
-1.31329549799e-09
7.01495661996e-05
-2.15564830882e-09
7.01495171679e-05
-3.38278225541e-09
7.01493660239e-05
-5.17526202445e-09
7.01490136007e-05
-7.80606379405e-09
7.01482844294e-05
-1.16851876721e-08
7.01468767336e-05
-1.74373790682e-08
7.01442784682e-05
-2.60168138475e-08
7.01396145721e-05
-3.88666808346e-08
7.01314030176e-05
-5.82049197768e-08
7.01171542044e-05
-8.74518135194e-08
7.00927121673e-05
-1.31863444811e-07
7.00509848575e-05
-1.99139947169e-07
6.99799965144e-05
-3.00607159414e-07
6.98597791556e-05
-4.52164180719e-07
6.96578856266e-05
-6.74445162087e-07
6.93243984792e-05
-9.90416029961e-07
6.87897615539e-05
-1.41758342401e-06
6.7971375357e-05
-1.9547150961e-06
-2.5558757835e-06
6.68111330805e-05
5.0880413455e-05
7.87227396672e-07
5.31704669712e-05
2.16453029998e-06
5.62177509627e-05
3.00906749074e-06
5.94382714117e-05
3.30264771167e-06
6.24449716645e-05
3.18548935201e-06
6.50382555154e-05
2.82473444811e-06
6.71548695176e-05
2.35976751633e-06
6.88135684424e-05
1.88532060025e-06
7.00731748731e-05
1.45476832257e-06
7.1005672269e-05
1.0913309559e-06
7.16812690015e-05
7.99459315423e-07
7.2161428809e-05
5.73543554035e-07
7.2496610199e-05
4.03650584912e-07
7.27264872302e-05
2.78884684867e-07
7.28812866229e-05
1.8911956866e-07
7.29834768904e-05
1.25727694296e-07
7.30494212087e-05
8.17481749479e-08
7.3090823875e-05
5.17742351735e-08
7.31159183988e-05
3.1724781502e-08
7.31304035149e-05
1.85893678456e-08
7.31381588444e-05
1.01902466492e-08
7.31417798966e-05
4.97948842692e-09
7.31429682123e-05
1.87432262491e-09
7.31428224411e-05
1.28907581759e-10
7.31419998066e-05
-7.7489730612e-10
7.31409174923e-05
-1.15831074175e-09
7.31398031997e-05
-1.24400870886e-09
7.31387763379e-05
-1.17037794095e-09
7.3137889361e-05
-1.02207650956e-09
7.31371561761e-05
-8.49452346602e-10
7.31365694027e-05
-6.79763293628e-10
7.31361116534e-05
-5.26745361125e-10
7.31357620519e-05
-3.95852939782e-10
7.31354999679e-05
-2.87714209487e-10
7.31353070552e-05
-2.00270989925e-10
7.31351676777e-05
-1.30541053e-10
7.31350685822e-05
-7.52655897289e-11
7.31349972451e-05
-3.09536739772e-11
7.31349443526e-05
5.98605858316e-12
7.31349148363e-05
3.20540135663e-11
7.3134891923e-05
5.45317534642e-11
7.3134875298e-05
7.43948155553e-11
7.31348630984e-05
9.24197373726e-11
7.31348535164e-05
1.09292163973e-10
7.31348452838e-05
1.25714901591e-10
7.31348375188e-05
1.42045660111e-10
7.31348296094e-05
1.58335687853e-10
7.31348211262e-05
1.74355373847e-10
7.31348118022e-05
1.89550385921e-10
7.31348016031e-05
2.03069284712e-10
7.31347905933e-05
2.13893966412e-10
7.3134778853e-05
2.20232703692e-10
7.31347665046e-05
2.19590421685e-10
7.31347537675e-05
2.08731714219e-10
7.31347411734e-05
1.8365992359e-10
7.31347297827e-05
1.4003132069e-10
7.31347148787e-05
7.57983399965e-11
7.31346911135e-05
-4.99658746318e-11
7.31346488749e-05
-3.06137028449e-10
7.31345819383e-05
-6.73054339553e-10
7.31344667078e-05
-1.1980856985e-09
7.31342597932e-05
-1.9487598228e-09
7.31338930179e-05
-3.01600926428e-09
7.31332513092e-05
-4.53353010337e-09
7.31321414741e-05
-6.69621214719e-09
7.31302412892e-05
-9.78503829972e-09
7.31270234035e-05
-1.42195817952e-08
7.31216320533e-05
-2.06255985605e-08
7.31126531204e-05
-2.98879175743e-08
7.30977807024e-05
-4.33327044565e-08
7.30733068994e-05
-6.29782491352e-08
7.3033331286e-05
-9.18881600515e-08
7.29683346481e-05
-1.34143783399e-07
7.28632923511e-05
-1.95565499121e-07
7.2695027211e-05
-2.83899757929e-07
7.24290214536e-05
-4.08440075347e-07
7.20168857804e-05
-5.78280908828e-07
7.13973792279e-05
-7.980775298e-07
7.05048851495e-05
-1.06222152208e-06
-1.34567497311e-06
6.92946838883e-05
5.07871728614e-05
5.47874231677e-11
5.29516506468e-05
5.30228383219e-11
5.59606896963e-05
2.88623026491e-11
5.92633235888e-05
1.425058044e-11
6.24488105596e-05
2.80823195971e-12
6.52735514829e-05
-6.04817989702e-12
6.76333313738e-05
-1.19488666736e-11
6.95186672911e-05
-1.4893158616e-11
7.09734513595e-05
-1.53254269354e-11
7.20647965796e-05
-1.38399933529e-11
7.28642673955e-05
-1.10713217508e-11
7.34378190575e-05
-7.67514236343e-12
7.38414743904e-05
-4.30993150438e-12
7.41203611441e-05
-1.62121908867e-12
7.43094813684e-05
-1.94816654861e-13
7.44352099682e-05
-4.32013204977e-13
7.45169612166e-05
-2.58386110746e-12
7.45687423644e-05
-6.40543578652e-12
7.46004789267e-05
-1.12576773317e-11
7.4619084991e-05
-1.61580672205e-11
7.46292957649e-05
-1.9979429155e-11
7.46342974319e-05
-2.16291627609e-11
7.46361929441e-05
-2.06434148284e-11
7.46363406924e-05
-1.82956907096e-11
7.46355820991e-05
-1.57670857885e-11
7.46344369298e-05
-1.26152944386e-11
7.46332024428e-05
-9.01361494989e-12
7.46320375919e-05
-5.0313810991e-12
7.46310161747e-05
-1.71226261911e-13
7.46301632756e-05
3.92719746312e-12
7.46294753817e-05
8.59806835513e-12
7.46289354971e-05
1.35912132529e-11
7.46285212154e-05
1.88564669536e-11
7.46282094459e-05
2.4454767062e-11
7.46279789748e-05
3.05635282949e-11
7.46278114505e-05
3.73018280492e-11
7.46276917061e-05
4.47571562082e-11
7.46276080852e-05
5.29144453266e-11
7.46275524851e-05
6.18114505521e-11
7.46275136721e-05
7.10674852066e-11
7.46274877148e-05
8.06550449849e-11
7.46274707651e-05
9.14860533004e-11
7.46274598436e-05
1.03466396222e-10
7.46274527125e-05
1.16527105333e-10
7.46274478385e-05
1.30680265062e-10
7.4627444149e-05
1.45807607025e-10
7.4627440897e-05
1.61645479484e-10
7.46274375412e-05
1.77752654203e-10
7.46274336513e-05
1.93457896115e-10
7.46274288833e-05
2.07836887349e-10
7.46274230701e-05
2.19705714778e-10
7.46274160061e-05
2.2730788137e-10
7.46274073246e-05
2.2829978348e-10
7.46273963575e-05
2.19739930496e-10
7.46273819408e-05
1.98125488158e-10
7.46273623515e-05
1.5966981256e-10
7.46273367147e-05
1.0148134134e-10
7.46272919389e-05
-5.14994334333e-12
7.46272037129e-05
-2.17877402814e-10
7.46270677238e-05
-5.37044410343e-10
7.46268446808e-05
-9.75021000187e-10
7.46264737326e-05
-1.57778196639e-09
7.46258584178e-05
-2.40065214177e-09
7.46248418828e-05
-3.51694967331e-09
7.4623168955e-05
-5.02325706406e-09
7.46204224855e-05
-7.03859396923e-09
7.46159365038e-05
-9.73368153898e-09
7.46086525515e-05
-1.33417701866e-08
7.45968322115e-05
-1.80677413932e-08
7.45776735231e-05
-2.41742090615e-08
7.45467607384e-05
-3.20657134756e-08
7.44973623278e-05
-4.24900717474e-08
7.44187353201e-05
-5.55171345968e-08
7.42944773307e-05
-7.13080728852e-08
7.41002019862e-05
-8.96250925815e-08
7.38010790538e-05
-1.09317794795e-07
7.33504245464e-05
-1.27626984547e-07
7.26917283016e-05
-1.39382088167e-07
7.17669018122e-05
-1.37395757583e-07
-1.13170686161e-07
7.05343969141e-05
5.07871718264e-05
-7.87116786469e-07