/*--------------------------------*- C++ -*----------------------------------*\
| =========                 |                                                 |
| \\      /  F ield         | OpenFOAM: The Open Source CFD Toolbox           |
|  \\    /   O peration     | Version:  v1706                                 |
|   \\  /    A nd           | Web:      www.OpenFOAM.com                      |
|    \\/     M anipulation  |                                                 |
\*---------------------------------------------------------------------------*/
FoamFile
{
    version     2.0;
    format      ascii;
    class       volScalarField;
    location    "100";
    object      p;
}
// * * * * * * * * * * * * * * * * * * * * * * * * * * * * * * * * * * * * * //

dimensions      [0 2 -2 0 0 0 0];


internalField   nonuniform List<scalar> 
800
(
-6.97626e-32
6.9004e-32
3.84997e-31
7.94029e-31
1.24735e-30
1.70095e-30
2.15826e-30
2.61561e-30
3.07294e-30
3.53027e-30
3.98761e-30
4.44494e-30
4.90229e-30
5.35963e-30
5.81697e-30
6.27432e-30
6.73166e-30
7.18901e-30
7.64635e-30
8.10369e-30
8.56104e-30
9.01838e-30
9.47573e-30
9.93307e-30
1.03904e-29
1.08478e-29
1.13051e-29
1.17624e-29
1.22198e-29
1.26771e-29
1.31345e-29
1.35918e-29
1.40492e-29
1.45065e-29
1.49639e-29
1.54212e-29
1.58785e-29
1.63359e-29
1.67932e-29
1.72506e-29
1.77079e-29
1.81653e-29
1.86226e-29
1.908e-29
1.95373e-29
1.99946e-29
2.0452e-29
2.09093e-29
2.13667e-29
2.1824e-29
2.22814e-29
2.27387e-29
2.31961e-29
2.36534e-29
2.41107e-29
2.45681e-29
2.50254e-29
2.54828e-29
2.59401e-29
2.63975e-29
2.68548e-29
2.73121e-29
2.77695e-29
2.82268e-29
2.86842e-29
2.91415e-29
2.95989e-29
3.00562e-29
3.05136e-29
3.09709e-29
3.14282e-29
3.18856e-29
3.23429e-29
3.28003e-29
3.32576e-29
3.3715e-29
3.41723e-29
3.46297e-29
3.5087e-29
3.55443e-29
3.60017e-29
3.6459e-29
3.69164e-29
3.73737e-29
3.78311e-29
3.82884e-29
3.87458e-29
3.92031e-29
3.96604e-29
4.01178e-29
4.05751e-29
4.10325e-29
4.14898e-29
4.19472e-29
4.24045e-29
4.28619e-29
4.33192e-29
4.37765e-29
4.42339e-29
4.46912e-29
4.51486e-29
4.56059e-29
4.60633e-29
4.65206e-29
4.69779e-29
4.74353e-29
4.78926e-29
4.835e-29
4.88073e-29
4.92647e-29
4.9722e-29
5.01794e-29
5.06367e-29
5.1094e-29
5.15514e-29
5.20087e-29
5.24661e-29
5.29234e-29
5.33808e-29
5.38381e-29
5.42955e-29
5.47528e-29
5.52101e-29
5.56675e-29
5.61248e-29
5.65822e-29
5.70395e-29
5.74969e-29
5.79542e-29
5.84116e-29
5.88689e-29
5.93262e-29
5.97836e-29
6.02409e-29
6.06983e-29
6.11556e-29
6.1613e-29
6.20703e-29
6.25277e-29
6.2985e-29
6.34423e-29
6.38997e-29
6.4357e-29
6.48144e-29
6.52717e-29
6.57291e-29
6.61864e-29
6.66437e-29
6.71011e-29
6.75584e-29
6.80158e-29
6.84731e-29
6.89305e-29
6.93878e-29
6.98452e-29
7.03025e-29
7.07598e-29
7.12172e-29
7.16745e-29
7.21319e-29
7.25892e-29
7.30466e-29
7.35039e-29
7.39613e-29
7.44186e-29
7.48759e-29
7.53333e-29
7.57906e-29
7.6248e-29
7.67053e-29
7.71627e-29
7.762e-29
7.80774e-29
7.85347e-29
7.8992e-29
7.94494e-29
7.99067e-29
8.03641e-29
8.08214e-29
8.12788e-29
8.17361e-29
8.21935e-29
8.26508e-29
8.31081e-29
8.35655e-29
8.40228e-29
8.44802e-29
8.49375e-29
8.53949e-29
8.58522e-29
8.63095e-29
8.67669e-29
8.72242e-29
8.76816e-29
8.81389e-29
8.85963e-29
8.90536e-29
8.9511e-29
8.99683e-29
9.04256e-29
9.0883e-29
9.13403e-29
9.17977e-29
9.2255e-29
9.27124e-29
9.31697e-29
9.36271e-29
9.40844e-29
9.45417e-29
9.49991e-29
9.54564e-29
9.59138e-29
9.63711e-29
9.68285e-29
9.72858e-29
9.77432e-29
9.82005e-29
9.86578e-29
9.91152e-29
9.95725e-29
1.0003e-28
1.00487e-28
1.00945e-28
1.01402e-28
1.01859e-28
1.02317e-28
1.02774e-28
1.03231e-28
1.03689e-28
1.04146e-28
1.04603e-28
1.05061e-28
1.05518e-28
1.05975e-28
1.06433e-28
1.0689e-28
1.07347e-28
1.07805e-28
1.08262e-28
1.08719e-28
1.09177e-28
1.09634e-28
1.10091e-28
1.10549e-28
1.11006e-28
1.11463e-28
1.11921e-28
1.12378e-28
1.12836e-28
1.13293e-28
1.1375e-28
1.14208e-28
1.14665e-28
1.15122e-28
1.1558e-28
1.16037e-28
1.16494e-28
1.16952e-28
1.17409e-28
1.17866e-28
1.18324e-28
1.18781e-28
1.19238e-28
1.19696e-28
1.20153e-28
1.2061e-28
1.21068e-28
1.21525e-28
1.21982e-28
1.2244e-28
1.22897e-28
1.23354e-28
1.23812e-28
1.24269e-28
1.24726e-28
1.25184e-28
1.25641e-28
1.26099e-28
1.26556e-28
1.27013e-28
1.27471e-28
1.27928e-28
1.28386e-28
1.28844e-28
1.29303e-28
1.29764e-28
1.3023e-28
1.30702e-28
1.31183e-28
1.31661e-28
1.32055e-28
1.32051e-28
1.30694e-28
1.25004e-28
1.03961e-28
2.88809e-29
-2.03956e-28
-8.36986e-28
-2.59382e-27
-8.27091e-27
-2.63056e-26
-7.49068e-26
-1.93537e-25
-5.35584e-25
-1.66794e-24
-4.91889e-24
-1.24744e-23
-3.10693e-23
-9.39041e-23
-3.01092e-22
-8.01276e-22
-1.74883e-21
-4.40365e-21
-1.07981e-20
-2.59617e-20
-8.60242e-20
3.78435e-19
1.92938e-18
-1.58503e-18
-2.91883e-17
-3.38566e-17
-7.91292e-17
-1.12604e-16
-3.97778e-17
8.37301e-18
-2.96525e-17
-1.05335e-16
-7.93723e-17
-9.41523e-20
3.84531e-17
-1.13517e-17
-6.22464e-17
3.78044e-17
4.06058e-17
-2.76039e-17
-4.87143e-17
-7.64271e-17
-7.2413e-17
-9.96573e-17
-4.19924e-17
3.6246e-17
-2.14303e-17
-7.61397e-17
-4.60225e-17
-8.25564e-19
8.96032e-18
-6.9432e-17
-1.1551e-16
-3.73681e-17
4.39481e-18
-3.24424e-17
-3.18268e-17
-6.74053e-18
-2.75732e-17
3.15851e-18
-4.25041e-17
-1.4058e-16
-8.7397e-17
-3.63247e-17
9.13065e-18
7.80061e-17
7.51397e-17
2.59685e-17
-6.57449e-17
-6.87867e-17
-1.48511e-18
-2.91576e-17
-7.84497e-17
-1.08529e-16
-7.46051e-17
-3.30738e-17
8.74274e-18
3.29248e-17
-3.94171e-17
-1.06438e-16
-7.63368e-17
8.34314e-18
7.85128e-17
2.68217e-17
-1.00182e-16
-8.34265e-17
-6.50257e-17
-2.9751e-17
-6.08429e-18
-3.38107e-17
-7.13348e-17
-7.56307e-17
-6.13981e-19
4.22926e-17
-3.41236e-17
-1.01169e-16
-4.34013e-17
-3.4199e-17
-4.0796e-17
-3.63889e-17
-2.64533e-17
-1.58115e-18
2.88962e-18
-4.65776e-18
-7.21893e-17
-1.09897e-16
-7.54636e-17
-3.38869e-17
4.61513e-18
3.93685e-17
3.98784e-17
-3.56498e-17
-7.38873e-17
-4.21548e-17
-3.65999e-17
1.14345e-18
6.88905e-17
4.38153e-17
-3.02861e-17
-3.50976e-17
-2.52287e-18
-9.48851e-18
-3.6015e-17
-7.15088e-17
-7.13441e-17
3.64674e-18
1.0518e-16
8.69495e-17
2.43686e-18
-1.9572e-17
-3.17611e-18
8.39269e-18
-3.53383e-18
-2.50528e-17
1.69764e-19
-1.91314e-17
-3.27254e-17
8.39049e-17
1.12026e-16
-1.03717e-18
-7.51432e-17
-7.84669e-17
-6.57872e-18
7.28014e-17
1.60704e-17
-3.40213e-17
-4.35637e-17
-3.60213e-17
-3.44215e-17
-3.95838e-17
-3.84049e-17
-6.57872e-17
3.02409e-17
1.12641e-16
4.38767e-17
-1.37746e-17
-1.22338e-18
4.31401e-17
3.26351e-17
-2.59567e-17
-4.02142e-17
-8.06288e-17
-6.8266e-17
-3.31672e-18
-2.84297e-17
-7.33736e-17
-1.09757e-16
-3.99059e-19
7.02997e-17
-3.45155e-17
-8.69737e-18
8.03436e-17
1.10574e-16
6.73205e-17
3.40424e-17
6.87436e-17
7.91438e-17
4.1087e-17
3.40546e-17
2.44005e-17
-7.41487e-17
-4.02756e-17
3.4108e-17
4.45529e-17
7.54588e-17
3.79307e-17
-3.54759e-18
-3.56827e-18
-3.11264e-19
1.51421e-19
-9.06894e-20
-1.82143e-19
-1.74424e-19
-1.63755e-19
-1.62624e-19
-1.63492e-19
-1.6376e-19
-1.63723e-19
-1.63694e-19
-1.63693e-19
-1.63696e-19
-1.63697e-19
-1.63696e-19
-1.63696e-19
-1.63696e-19
-1.63696e-19
-1.63696e-19
-1.63696e-19
-1.63696e-19
-1.63696e-19
-1.63696e-19
-1.63696e-19
-1.63696e-19
-1.63696e-19
-1.63696e-19
-1.63696e-19
-1.63697e-19
-1.63697e-19
-1.63697e-19
-1.63696e-19
-1.63692e-19
-1.63677e-19
-1.63659e-19
-1.63676e-19
-1.63836e-19
-1.63683e-19
-1.61849e-19
-1.52814e-19
-1.3951e-19
-1.6571e-19
-3.79774e-19
-8.16453e-19
-9.06349e-19
3.15207e-18
1.13757e-17
-2.71184e-18
-8.71453e-17
-1.4429e-16
-7.09208e-17
1.13236e-18
5.13254e-18
3.8811e-19
-4.33223e-19
-1.98819e-19
-1.72774e-19
-1.71425e-19
-1.67452e-19
-1.64905e-19
-1.64141e-19
-1.6387e-19
-1.63761e-19
-1.63719e-19
-1.63705e-19
-1.63699e-19
-1.63698e-19
-1.63697e-19
-1.63697e-19
-1.63696e-19
-1.63696e-19
-1.63696e-19
-1.63696e-19
-1.63696e-19
-1.63696e-19
-1.63696e-19
-1.63696e-19
-1.63696e-19
-1.63696e-19
-1.63696e-19
-1.63696e-19
-1.63696e-19
-1.63696e-19
-1.63696e-19
-1.63696e-19
-1.63696e-19
-1.63696e-19
-1.63696e-19
-1.63696e-19
-1.63696e-19
-1.63696e-19
-1.63696e-19
-1.63696e-19
-1.63696e-19
-1.63696e-19
-1.63696e-19
-1.63696e-19
-1.63696e-19
-1.63696e-19
-1.63696e-19
-1.63696e-19
-1.63696e-19
-1.63696e-19
-1.63696e-19
-1.63696e-19
-1.63696e-19
-1.63696e-19
-1.63696e-19
-1.63696e-19
-1.63696e-19
-1.63696e-19
-1.63696e-19
-1.63696e-19
-1.63696e-19
-1.63696e-19
-1.63696e-19
-1.63696e-19
-1.63696e-19
-1.63696e-19
-1.63696e-19
-1.63696e-19
-1.63696e-19
-1.63696e-19
-1.63696e-19
-1.63696e-19
-1.63696e-19
-1.63696e-19
-1.63696e-19
-1.63696e-19
-1.63696e-19
-1.63696e-19
-1.63696e-19
-1.63696e-19
-1.63696e-19
-1.63696e-19
-1.63696e-19
-1.63696e-19
-1.63696e-19
-1.63696e-19
-1.63696e-19
-1.63696e-19
-1.63696e-19
-1.63696e-19
-1.63696e-19
-1.63696e-19
-1.63696e-19
-1.63696e-19
-1.63696e-19
-1.63696e-19
-1.63696e-19
-1.63696e-19
-1.63696e-19
-1.63696e-19
-1.63696e-19
-1.63696e-19
-1.63696e-19
-1.63696e-19
-1.63696e-19
-1.63696e-19
-1.63696e-19
-1.63696e-19
-1.63696e-19
-1.63696e-19
-1.63696e-19
-1.63696e-19
-1.63696e-19
-1.63696e-19
-1.63696e-19
-1.63696e-19
-1.63696e-19
-1.63696e-19
-1.63696e-19
-1.63696e-19
-1.63696e-19
-1.63696e-19
-1.63696e-19
-1.63696e-19
-1.63696e-19
-1.63696e-19
-1.63696e-19
-1.63696e-19
-1.63696e-19
-1.63696e-19
-1.63696e-19
-1.63696e-19
-1.63696e-19
-1.63696e-19
-1.63696e-19
-1.63696e-19
-1.63696e-19
-1.63696e-19
-1.63696e-19
-1.63696e-19
-1.63696e-19
-1.63696e-19
-1.63696e-19
-1.63696e-19
-1.63696e-19
-1.63696e-19
-1.63696e-19
-1.63696e-19
-1.63696e-19
-1.63696e-19
-1.63696e-19
-1.63696e-19
-1.63696e-19
-1.63696e-19
-1.63696e-19
-1.63696e-19
-1.63696e-19
-1.63696e-19
-1.63696e-19
-1.63696e-19
-1.63696e-19
-1.63696e-19
-1.63696e-19
-1.63696e-19
-1.63696e-19
-1.63696e-19
-1.63696e-19
-1.63696e-19
-1.63696e-19
-1.63696e-19
-1.63696e-19
-1.63696e-19
-1.63696e-19
-1.63696e-19
-1.63696e-19
-1.63696e-19
-1.63696e-19
-1.63696e-19
-1.63696e-19
-1.63696e-19
-1.63696e-19
-1.63696e-19
-1.63696e-19
-1.63696e-19
-1.63696e-19
-1.63696e-19
-1.63696e-19
-1.63696e-19
-1.63696e-19
-1.63696e-19
-1.63696e-19
-1.63696e-19
-1.63696e-19
-1.63696e-19
-1.63696e-19
-1.63696e-19
-1.63696e-19
-1.63696e-19
-1.63696e-19
-1.63696e-19
-1.63696e-19
-1.63696e-19
-1.63696e-19
-1.63696e-19
-1.63696e-19
-1.63696e-19
-1.63696e-19
-1.63696e-19
-1.63696e-19
-1.63696e-19
-1.63696e-19
-1.63696e-19
-1.63696e-19
-1.63696e-19
-1.63696e-19
-1.63696e-19
-1.63696e-19
-1.63696e-19
-1.63696e-19
-1.63696e-19
-1.63696e-19
-1.63696e-19
-1.63696e-19
-1.63696e-19
-1.63696e-19
-1.63696e-19
-1.63696e-19
-1.63696e-19
-1.63696e-19
-1.63696e-19
-1.63696e-19
-1.63696e-19
-1.63696e-19
-1.63696e-19
-1.63696e-19
-1.63696e-19
-1.63696e-19
-1.63696e-19
-1.63696e-19
-1.63696e-19
-1.63696e-19
-1.63696e-19
-1.63696e-19
-1.63696e-19
-1.63696e-19
-1.63696e-19
-1.63696e-19
-1.63696e-19
-1.63696e-19
-1.63696e-19
-1.63696e-19
-1.63696e-19
-1.63696e-19
-1.63696e-19
-1.63696e-19
-1.63696e-19
-1.63696e-19
-1.63696e-19
-1.63696e-19
-1.63696e-19
-1.63696e-19
-1.63696e-19
-1.63696e-19
-1.63696e-19
)
;

boundaryField
{
    left
    {
        type            zeroGradient;
    }
    right
    {
        type            zeroGradient;
    }
    empty
    {
        type            empty;
    }
}


// ************************************************************************* //
