/*--------------------------------*- C++ -*----------------------------------*\
| =========                 |                                                 |
| \\      /  F ield         | OpenFOAM: The Open Source CFD Toolbox           |
|  \\    /   O peration     | Version:  v1706                                 |
|   \\  /    A nd           | Web:      www.OpenFOAM.com                      |
|    \\/     M anipulation  |                                                 |
\*---------------------------------------------------------------------------*/
FoamFile
{
    version     2.0;
    format      ascii;
    class       volScalarField;
    location    "100";
    object      pB;
}
// * * * * * * * * * * * * * * * * * * * * * * * * * * * * * * * * * * * * * //

dimensions      [1 1 -3 0 0 -1 0];


internalField   nonuniform List<scalar> 
800
(
1.06774e-11
1.06774e-11
1.06774e-11
1.06774e-11
1.06774e-11
1.06774e-11
1.06774e-11
1.06774e-11
1.06774e-11
1.06774e-11
1.06774e-11
1.06774e-11
1.06774e-11
1.06774e-11
1.06774e-11
1.06774e-11
1.06774e-11
1.06774e-11
1.06774e-11
1.06774e-11
1.06774e-11
1.06774e-11
1.06774e-11
1.06774e-11
1.06774e-11
1.06774e-11
1.06774e-11
1.06774e-11
1.06774e-11
1.06774e-11
1.06774e-11
1.06774e-11
1.06774e-11
1.06774e-11
1.06774e-11
1.06774e-11
1.06774e-11
1.06774e-11
1.06774e-11
1.06774e-11
1.06774e-11
1.06774e-11
1.06774e-11
1.06774e-11
1.06774e-11
1.06774e-11
1.06774e-11
1.06774e-11
1.06774e-11
1.06774e-11
1.06774e-11
1.06774e-11
1.06774e-11
1.06774e-11
1.06774e-11
1.06774e-11
1.06774e-11
1.06774e-11
1.06774e-11
1.06774e-11
1.06774e-11
1.06774e-11
1.06774e-11
1.06774e-11
1.06774e-11
1.06774e-11
1.06774e-11
1.06774e-11
1.06774e-11
1.06774e-11
1.06774e-11
1.06774e-11
1.06774e-11
1.06774e-11
1.06774e-11
1.06774e-11
1.06774e-11
1.06774e-11
1.06774e-11
1.06774e-11
1.06774e-11
1.06774e-11
1.06774e-11
1.06774e-11
1.06774e-11
1.06774e-11
1.06774e-11
1.06774e-11
1.06774e-11
1.06774e-11
1.06774e-11
1.06774e-11
1.06774e-11
1.06774e-11
1.06774e-11
1.06774e-11
1.06774e-11
1.06774e-11
1.06774e-11
1.06774e-11
1.06774e-11
1.06774e-11
1.06774e-11
1.06774e-11
1.06774e-11
1.06774e-11
1.06774e-11
1.06774e-11
1.06774e-11
1.06774e-11
1.06774e-11
1.06774e-11
1.06774e-11
1.06774e-11
1.06774e-11
1.06774e-11
1.06774e-11
1.06774e-11
1.06774e-11
1.06774e-11
1.06774e-11
1.06774e-11
1.06774e-11
1.06774e-11
1.06774e-11
1.06774e-11
1.06774e-11
1.06774e-11
1.06774e-11
1.06774e-11
1.06774e-11
1.06774e-11
1.06774e-11
1.06774e-11
1.06774e-11
1.06774e-11
1.06774e-11
1.06774e-11
1.06774e-11
1.06774e-11
1.06774e-11
1.06774e-11
1.06774e-11
1.06774e-11
1.06774e-11
1.06774e-11
1.06774e-11
1.06774e-11
1.06774e-11
1.06774e-11
1.06774e-11
1.06774e-11
1.06774e-11
1.06774e-11
1.06774e-11
1.06774e-11
1.06774e-11
1.06774e-11
1.06774e-11
1.06774e-11
1.06774e-11
1.06774e-11
1.06774e-11
1.06774e-11
1.06774e-11
1.06774e-11
1.06774e-11
1.06774e-11
1.06774e-11
1.06774e-11
1.06774e-11
1.06774e-11
1.06774e-11
1.06774e-11
1.06774e-11
1.06774e-11
1.06774e-11
1.06774e-11
1.06774e-11
1.06774e-11
1.06774e-11
1.06774e-11
1.06774e-11
1.06774e-11
1.06774e-11
1.06774e-11
1.06774e-11
1.06774e-11
1.06774e-11
1.06774e-11
1.06774e-11
1.06774e-11
1.06774e-11
1.06774e-11
1.06774e-11
1.06774e-11
1.06774e-11
1.06774e-11
1.06774e-11
1.06774e-11
1.06774e-11
1.06774e-11
1.06774e-11
1.06774e-11
1.06774e-11
1.06774e-11
1.06774e-11
1.06774e-11
1.06774e-11
1.06774e-11
1.06774e-11
1.06774e-11
1.06774e-11
1.06774e-11
1.06774e-11
1.06774e-11
1.06774e-11
1.06774e-11
1.06774e-11
1.06774e-11
1.06774e-11
1.06774e-11
1.06774e-11
1.06774e-11
1.06774e-11
1.06774e-11
1.06774e-11
1.06774e-11
1.06774e-11
1.06774e-11
1.06774e-11
1.06774e-11
1.06774e-11
1.06774e-11
1.06774e-11
1.06774e-11
1.06774e-11
1.06774e-11
1.06774e-11
1.06774e-11
1.06774e-11
1.06774e-11
1.06774e-11
1.06774e-11
1.06774e-11
1.06774e-11
1.06774e-11
1.06774e-11
1.06774e-11
1.06774e-11
1.06774e-11
1.06774e-11
1.06774e-11
1.06774e-11
1.06774e-11
1.06774e-11
1.06774e-11
1.06774e-11
1.06774e-11
1.06774e-11
1.06774e-11
1.06774e-11
1.06774e-11
1.06774e-11
1.06774e-11
1.06774e-11
1.06774e-11
1.06774e-11
1.06774e-11
1.06774e-11
1.06774e-11
1.06774e-11
1.06774e-11
1.06774e-11
1.06774e-11
1.06774e-11
1.06774e-11
1.06774e-11
1.06774e-11
1.06774e-11
1.06774e-11
1.06774e-11
1.06774e-11
1.06774e-11
1.06774e-11
1.06774e-11
1.06774e-11
1.06774e-11
1.06774e-11
1.06774e-11
1.06774e-11
1.06774e-11
1.06774e-11
1.06774e-11
1.06774e-11
1.06774e-11
1.06774e-11
1.06774e-11
1.06774e-11
1.06774e-11
1.06774e-11
1.06774e-11
1.06774e-11
1.06774e-11
1.06774e-11
1.06774e-11
1.06774e-11
1.06774e-11
1.06774e-11
1.06774e-11
1.06774e-11
1.06774e-11
1.06774e-11
1.06774e-11
1.06774e-11
1.06774e-11
1.06774e-11
1.06774e-11
1.06774e-11
1.06769e-11
1.06761e-11
1.06744e-11
1.0671e-11
1.06663e-11
1.06594e-11
1.06496e-11
1.06364e-11
1.06194e-11
1.05976e-11
1.05703e-11
1.05367e-11
1.04953e-11
1.04459e-11
1.0387e-11
1.03188e-11
1.02404e-11
1.01517e-11
1.00532e-11
9.94578e-12
9.83109e-12
9.7113e-12
9.5915e-12
9.47511e-12
9.36981e-12
9.28327e-12
9.22528e-12
9.20738e-12
9.24362e-12
9.34764e-12
9.53522e-12
9.82299e-12
1.02272e-11
1.07622e-11
1.14405e-11
1.22718e-11
1.32596e-11
1.44022e-11
1.5688e-11
1.7097e-11
1.85972e-11
2.01452e-11
2.16859e-11
2.31508e-11
2.44613e-11
2.5528e-11
2.62557e-11
2.65452e-11
2.63005e-11
2.54312e-11
2.38623e-11
2.15384e-11
1.84318e-11
1.45471e-11
9.92744e-12
4.65848e-12
-1.12974e-12
-7.26243e-12
-1.3526e-11
-1.96694e-11
-2.54171e-11
-3.04788e-11
-3.4563e-11
-3.73939e-11
-3.87248e-11
-3.83578e-11
-3.61575e-11
-3.20639e-11
-2.61018e-11
-1.8387e-11
-9.1259e-12
1.38899e-12
1.27877e-11
2.46404e-11
3.64752e-11
4.78018e-11
5.81355e-11
6.7024e-11
7.40698e-11
7.89543e-11
8.14538e-11
8.14542e-11
7.89555e-11
7.4072e-11
6.70269e-11
5.81398e-11
4.78073e-11
3.6482e-11
2.4648e-11
1.27958e-11
1.39709e-12
-9.11738e-12
-1.83793e-11
-2.60949e-11
-3.2058e-11
-3.61524e-11
-3.83535e-11
-3.87214e-11
-3.73913e-11
-3.45618e-11
-3.0478e-11
-2.54167e-11
-1.96694e-11
-1.35264e-11
-7.26414e-12
-1.13187e-12
4.6555e-12
9.92403e-12
1.45446e-11
1.84301e-11
2.1538e-11
2.38623e-11
2.54321e-11
2.63022e-11
2.65486e-11
2.62608e-11
2.55357e-11
2.44711e-11
2.31627e-11
2.16991e-11
2.01601e-11
1.8613e-11
1.71144e-11
1.57076e-11
1.44235e-11
1.32831e-11
1.22961e-11
1.14661e-11
1.07886e-11
1.02544e-11
9.85113e-12
9.56336e-12
9.37578e-12
9.27175e-12
9.23552e-12
9.253e-12
9.31055e-12
9.39667e-12
9.50197e-12
9.6175e-12
9.7373e-12
9.85539e-12
9.96922e-12
1.00754e-11
1.01726e-11
1.02591e-11
1.03359e-11
1.04024e-11
1.04591e-11
1.05072e-11
1.05469e-11
1.05797e-11
1.06062e-11
1.0627e-11
1.06432e-11
1.06552e-11
1.06637e-11
1.06692e-11
1.06727e-11
1.06748e-11
1.06761e-11
1.06769e-11
1.06774e-11
1.06778e-11
1.06782e-11
1.06786e-11
1.06791e-11
1.06795e-11
1.06799e-11
1.06803e-11
1.06808e-11
1.06812e-11
1.06816e-11
1.0682e-11
1.06825e-11
1.06829e-11
1.06833e-11
1.06837e-11
1.06842e-11
1.06846e-11
1.0685e-11
1.06855e-11
1.06859e-11
1.06863e-11
1.06867e-11
1.06872e-11
1.06876e-11
1.0688e-11
1.06884e-11
1.06889e-11
1.06893e-11
1.06897e-11
1.06901e-11
1.06906e-11
1.0691e-11
1.06914e-11
1.06918e-11
1.06923e-11
1.06927e-11
1.06931e-11
1.06936e-11
1.0694e-11
1.06944e-11
1.06948e-11
1.06953e-11
1.06957e-11
1.06961e-11
1.06965e-11
1.0697e-11
1.06974e-11
1.06978e-11
1.06982e-11
1.06987e-11
1.06991e-11
1.06995e-11
1.07004e-11
1.07004e-11
1.07004e-11
1.07004e-11
1.07004e-11
1.07004e-11
1.07004e-11
1.07004e-11
1.07004e-11
1.07004e-11
1.07004e-11
1.07004e-11
1.07004e-11
1.07004e-11
1.07004e-11
1.07004e-11
1.07004e-11
1.07004e-11
1.07004e-11
1.07004e-11
1.07004e-11
1.07004e-11
1.07004e-11
1.07004e-11
1.07004e-11
1.07004e-11
1.07004e-11
1.07004e-11
1.07004e-11
1.07004e-11
1.07004e-11
1.07004e-11
1.07004e-11
1.07004e-11
1.07004e-11
1.07004e-11
1.07004e-11
1.07004e-11
1.07004e-11
1.07004e-11
1.07004e-11
1.07004e-11
1.07004e-11
1.07004e-11
1.07004e-11
1.07004e-11
1.07004e-11
1.07004e-11
1.07004e-11
1.07004e-11
1.07004e-11
1.07004e-11
1.07004e-11
1.07004e-11
1.07004e-11
1.07004e-11
1.07004e-11
1.07004e-11
1.07004e-11
1.07004e-11
1.07004e-11
1.07004e-11
1.07004e-11
1.07004e-11
1.07004e-11
1.07004e-11
1.07004e-11
1.07004e-11
1.07004e-11
1.07004e-11
1.07004e-11
1.07004e-11
1.07004e-11
1.07004e-11
1.07004e-11
1.07004e-11
1.07004e-11
1.07004e-11
1.07004e-11
1.07004e-11
1.07004e-11
1.07004e-11
1.07004e-11
1.07004e-11
1.07004e-11
1.07004e-11
1.07004e-11
1.07004e-11
1.07004e-11
1.07004e-11
1.07004e-11
1.07004e-11
1.07004e-11
1.07004e-11
1.07004e-11
1.07004e-11
1.07004e-11
1.07004e-11
1.07004e-11
1.07004e-11
1.07004e-11
1.07004e-11
1.07004e-11
1.07004e-11
1.07004e-11
1.07004e-11
1.07004e-11
1.07004e-11
1.07004e-11
1.07004e-11
1.07004e-11
1.07004e-11
1.07004e-11
1.07004e-11
1.07004e-11
1.07004e-11
1.07004e-11
1.07004e-11
1.07004e-11
1.07004e-11
1.07004e-11
1.07004e-11
1.07004e-11
1.07004e-11
1.07004e-11
1.07004e-11
1.07004e-11
1.07004e-11
1.07004e-11
1.07004e-11
1.07004e-11
1.07004e-11
1.07004e-11
1.07004e-11
1.07004e-11
1.07004e-11
1.07004e-11
1.07004e-11
1.07004e-11
1.07004e-11
1.07004e-11
1.07004e-11
1.07004e-11
1.07004e-11
1.07004e-11
1.07004e-11
1.07004e-11
1.07004e-11
1.07004e-11
1.07004e-11
1.07004e-11
1.07004e-11
1.07004e-11
1.07004e-11
1.07004e-11
1.07004e-11
1.07004e-11
1.07004e-11
1.07004e-11
1.07004e-11
1.07004e-11
1.07004e-11
1.07004e-11
1.07004e-11
1.07004e-11
1.07004e-11
1.07004e-11
1.07004e-11
1.07004e-11
1.07004e-11
1.07004e-11
1.07004e-11
1.07004e-11
1.07004e-11
1.07004e-11
1.07004e-11
1.07004e-11
1.07004e-11
1.07004e-11
1.07004e-11
1.07004e-11
1.07004e-11
1.07004e-11
1.07004e-11
1.07004e-11
1.07004e-11
1.07004e-11
1.07004e-11
1.07004e-11
1.07004e-11
1.07004e-11
1.07004e-11
1.07004e-11
1.07004e-11
1.07004e-11
1.07004e-11
1.07004e-11
1.07004e-11
1.07004e-11
1.07004e-11
1.07004e-11
1.07004e-11
1.07004e-11
1.07004e-11
1.07004e-11
1.07004e-11
1.07004e-11
1.07004e-11
1.07004e-11
1.07004e-11
1.07004e-11
1.07004e-11
1.07004e-11
1.07004e-11
1.07004e-11
1.07004e-11
1.07004e-11
1.07004e-11
1.07004e-11
1.07004e-11
1.07004e-11
1.07004e-11
1.07004e-11
1.07004e-11
1.07004e-11
1.07004e-11
1.07004e-11
1.07004e-11
1.07004e-11
1.07004e-11
1.07004e-11
1.07004e-11
1.07004e-11
1.07004e-11
1.07004e-11
1.07004e-11
1.07004e-11
1.07004e-11
1.07004e-11
1.07004e-11
1.07004e-11
1.07004e-11
1.07004e-11
1.07004e-11
1.07004e-11
1.07004e-11
1.07004e-11
1.07004e-11
1.07004e-11
1.07004e-11
1.07004e-11
1.07004e-11
1.07004e-11
1.07004e-11
1.07004e-11
1.07004e-11
1.07004e-11
1.07004e-11
1.07004e-11
1.07004e-11
1.07004e-11
1.07004e-11
1.07004e-11
1.07004e-11
1.07004e-11
1.07004e-11
)
;

boundaryField
{
    left
    {
        type            zeroGradient;
    }
    right
    {
        type            zeroGradient;
    }
    empty
    {
        type            empty;
    }
}


// ************************************************************************* //
