/*--------------------------------*- C++ -*----------------------------------*\
| =========                 |                                                 |
| \\      /  F ield         | OpenFOAM: The Open Source CFD Toolbox           |
|  \\    /   O peration     | Version:  v1706                                 |
|   \\  /    A nd           | Web:      www.OpenFOAM.com                      |
|    \\/     M anipulation  |                                                 |
\*---------------------------------------------------------------------------*/
FoamFile
{
    version     2.0;
    format      ascii;
    class       surfaceScalarField;
    location    "100";
    object      phi;
}
// * * * * * * * * * * * * * * * * * * * * * * * * * * * * * * * * * * * * * //

dimensions      [0 3 -1 0 0 0 0];
oriented        oriented;


internalField   nonuniform List<scalar> 
799
(
5.60519e-45
-3.4502e-29
-3.4502e-29
-3.4502e-29
-3.4502e-29
-3.4502e-29
-3.4502e-29
-3.4502e-29
-3.4502e-29
-3.4502e-29
-3.4502e-29
-3.4502e-29
-3.4502e-29
-3.4502e-29
-3.4502e-29
-3.4502e-29
-3.4502e-29
-3.4502e-29
-3.4502e-29
-3.4502e-29
-3.4502e-29
-3.4502e-29
-3.4502e-29
-3.4502e-29
-3.4502e-29
-3.4502e-29
-3.4502e-29
-3.4502e-29
-3.4502e-29
-3.4502e-29
-3.4502e-29
-3.4502e-29
-3.4502e-29
-3.4502e-29
-3.4502e-29
-3.4502e-29
-3.4502e-29
-3.4502e-29
-3.4502e-29
-3.4502e-29
-3.4502e-29
-3.4502e-29
-3.4502e-29
-3.4502e-29
-3.4502e-29
-3.4502e-29
-3.4502e-29
-3.4502e-29
-3.4502e-29
-3.4502e-29
-3.4502e-29
-3.4502e-29
-3.4502e-29
-3.4502e-29
-3.4502e-29
-3.4502e-29
-3.4502e-29
-3.4502e-29
-3.4502e-29
-3.4502e-29
-3.4502e-29
-3.4502e-29
-3.4502e-29
-3.4502e-29
-3.4502e-29
-3.4502e-29
-3.4502e-29
-3.4502e-29
-3.4502e-29
-3.4502e-29
-3.4502e-29
-3.4502e-29
-3.4502e-29
-3.4502e-29
-3.4502e-29
-3.4502e-29
-3.4502e-29
-3.4502e-29
-3.4502e-29
-3.4502e-29
-3.4502e-29
-3.4502e-29
-3.4502e-29
-3.4502e-29
-3.4502e-29
-3.4502e-29
-3.4502e-29
-3.4502e-29
-3.4502e-29
-3.4502e-29
-3.4502e-29
-3.4502e-29
-3.4502e-29
-3.4502e-29
-3.4502e-29
-3.4502e-29
-3.4502e-29
-3.4502e-29
-3.4502e-29
-3.4502e-29
-3.4502e-29
-3.4502e-29
-3.4502e-29
-3.4502e-29
-3.4502e-29
-3.4502e-29
-3.4502e-29
-3.4502e-29
-3.4502e-29
-3.4502e-29
-3.4502e-29
-3.4502e-29
-3.4502e-29
-3.4502e-29
-3.4502e-29
-3.4502e-29
-3.4502e-29
-3.4502e-29
-3.4502e-29
-3.4502e-29
-3.4502e-29
-3.4502e-29
-3.4502e-29
-3.4502e-29
-3.4502e-29
-3.4502e-29
-3.4502e-29
-3.4502e-29
-3.4502e-29
-3.4502e-29
-3.4502e-29
-3.4502e-29
-3.4502e-29
-3.4502e-29
-3.4502e-29
-3.4502e-29
-3.4502e-29
-3.4502e-29
-3.4502e-29
-3.4502e-29
-3.4502e-29
-3.4502e-29
-3.4502e-29
-3.4502e-29
-3.4502e-29
-3.4502e-29
-3.4502e-29
-3.4502e-29
-3.4502e-29
-3.4502e-29
-3.4502e-29
-3.4502e-29
-3.4502e-29
-3.4502e-29
-3.4502e-29
-3.4502e-29
-3.4502e-29
-3.4502e-29
-3.4502e-29
-3.4502e-29
-3.4502e-29
-3.4502e-29
-3.4502e-29
-3.4502e-29
-3.4502e-29
-3.4502e-29
-3.4502e-29
-3.4502e-29
-3.4502e-29
-3.4502e-29
-3.4502e-29
-3.4502e-29
-3.4502e-29
-3.4502e-29
-3.4502e-29
-3.4502e-29
-3.4502e-29
-3.4502e-29
-3.4502e-29
-3.4502e-29
-3.4502e-29
-3.4502e-29
-3.4502e-29
-3.4502e-29
-3.4502e-29
-3.4502e-29
-3.4502e-29
-3.4502e-29
-3.4502e-29
-3.4502e-29
-3.4502e-29
-3.4502e-29
-3.4502e-29
-3.4502e-29
-3.4502e-29
-3.4502e-29
-3.4502e-29
-3.4502e-29
-3.4502e-29
-3.4502e-29
-3.4502e-29
-3.4502e-29
-3.4502e-29
-3.4502e-29
-3.4502e-29
-3.4502e-29
-3.4502e-29
-3.4502e-29
-3.4502e-29
-3.4502e-29
-3.4502e-29
-3.4502e-29
-3.4502e-29
-3.4502e-29
-3.4502e-29
-3.4502e-29
-3.4502e-29
-3.4502e-29
-3.4502e-29
-3.4502e-29
-3.4502e-29
-3.4502e-29
-3.4502e-29
-3.4502e-29
-3.4502e-29
-3.4502e-29
-3.4502e-29
-3.4502e-29
-3.4502e-29
-3.4502e-29
-3.4502e-29
-3.4502e-29
-3.4502e-29
-3.4502e-29
-3.4502e-29
-3.4502e-29
-3.4502e-29
-3.4502e-29
-3.4502e-29
-3.4502e-29
-3.4502e-29
-3.4502e-29
-3.4502e-29
-3.4502e-29
-3.4502e-29
-3.4502e-29
-3.4502e-29
-3.4502e-29
-3.4502e-29
-3.4502e-29
-3.4502e-29
-3.4502e-29
-3.4502e-29
-3.4502e-29
-3.4502e-29
-3.4502e-29
-3.4502e-29
-3.4502e-29
-3.4502e-29
-3.4502e-29
-3.4502e-29
-3.4502e-29
-3.4502e-29
-3.4502e-29
-3.4502e-29
-3.4502e-29
-3.4502e-29
-3.4502e-29
-3.4502e-29
-3.4502e-29
-3.4502e-29
-3.4502e-29
-3.4502e-29
-3.4502e-29
-3.4502e-29
-3.4502e-29
-3.4502e-29
-3.4502e-29
-3.4502e-29
-3.4502e-29
-3.4502e-29
-3.4502e-29
-3.4502e-29
-3.4502e-29
-3.4502e-29
-3.4502e-29
-3.4502e-29
-3.4502e-29
-3.4502e-29
-3.4502e-29
-3.4502e-29
-3.4502e-29
-3.4502e-29
-3.4502e-29
-3.4502e-29
-3.4502e-29
-3.4502e-29
-3.4502e-29
-3.4502e-29
-3.4502e-29
-3.4502e-29
-3.4502e-29
-3.4502e-29
-3.4502e-29
-3.4502e-29
-3.4502e-29
-3.4502e-29
-3.4502e-29
-3.4502e-29
-3.45022e-29
-3.45023e-29
-3.45031e-29
-3.45073e-29
-3.45096e-29
-3.45157e-29
-3.45127e-29
-3.45127e-29
-3.47099e-29
-3.47099e-29
-3.6682e-29
-3.62876e-29
-3.15544e-29
-3.78653e-29
-3.62876e-29
-3.31322e-29
-3.78653e-29
-2.36658e-29
-2.52435e-29
-2.52435e-29
-2.52435e-29
-2.68213e-29
-2.20881e-29
-2.40603e-29
-2.52435e-29
-2.60324e-29
-2.68213e-29
-2.95823e-29
-2.52435e-29
-2.52435e-29
-2.20881e-29
-2.52435e-29
-2.52435e-29
-2.52435e-29
-2.99767e-29
-2.87934e-29
-2.8399e-29
-2.8399e-29
-2.52435e-29
-2.36658e-29
-2.68213e-29
-2.73143e-29
-2.8399e-29
-2.76101e-29
-3.15544e-29
-2.8399e-29
-2.52435e-29
-3.31322e-29
-2.8399e-29
-2.99767e-29
-2.8399e-29
-2.75115e-29
-2.52435e-29
-2.52435e-29
-2.58352e-29
-2.52435e-29
-2.68213e-29
-2.8399e-29
-3.15544e-29
-2.8399e-29
-3.15544e-29
-2.99767e-29
-3.07656e-29
-2.8399e-29
-3.15544e-29
-3.15544e-29
-2.8399e-29
-3.15544e-29
-1.73549e-29
-2.52435e-29
-1.10441e-29
-1.49884e-29
-1.26218e-29
-1.49884e-29
-1.26218e-29
-1.41995e-29
-1.43967e-29
-9.46633e-30
-1.26218e-29
-1.26218e-29
-1.26218e-29
-1.89327e-29
-2.36658e-29
-2.20881e-29
-1.8341e-29
-2.16937e-29
-2.20881e-29
-2.12992e-29
-2.16937e-29
-1.89327e-29
-2.68213e-29
-1.10441e-29
-1.89327e-29
-1.73549e-29
-1.89327e-29
-1.61716e-29
-1.89327e-29
-1.73549e-29
-1.73549e-29
-1.40023e-29
-1.57772e-29
-1.57772e-29
-1.49884e-29
-1.57772e-29
-1.18329e-29
-1.41995e-29
-1.30162e-29
-1.34106e-29
-1.41995e-29
-1.08715e-29
-9.46633e-30
-9.46633e-30
-4.73317e-30
-3.15544e-30
-4.73317e-30
-5.52203e-30
-6.31089e-30
-5.91646e-30
-5.52203e-30
-6.31089e-30
-6.31089e-30
-5.52203e-30
0
-3.15544e-30
6.31089e-30
3.15544e-30
-9.86076e-32
6.31089e-30
3.15544e-30
-3.15544e-30
-3.15544e-30
-4.73317e-30
-6.31089e-30
-4.88108e-30
-5.71924e-30
-3.45127e-30
-9.46633e-30
0
-6.31089e-30
0
-3.15544e-30
-1.97215e-30
-3.15544e-30
-7.88861e-31
0
4.73317e-30
3.15544e-30
3.54987e-30
3.15544e-30
-1.57772e-30
3.15544e-30
-3.15544e-30
6.31089e-30
3.15544e-30
0
4.73317e-30
3.15544e-30
-1.57772e-30
-4.73317e-30
0
-1.57772e-30
0
1.57772e-30
3.9443e-31
0
3.15544e-30
-3.15544e-30
0
-2.76101e-30
-4.73317e-30
1.57772e-30
0
-2.40356e-30
-2.26798e-30
-2.12006e-30
-2.13239e-30
-2.13239e-30
-2.13393e-30
-2.13123e-30
-2.12223e-30
-2.12661e-30
-2.13385e-30
-2.12141e-30
-2.13483e-30
-2.12441e-30
-2.13414e-30
-2.12411e-30
-2.12854e-30
-2.12378e-30
-2.13575e-30
-2.1326e-30
-2.12719e-30
-2.12726e-30
-2.12418e-30
-2.12936e-30
-2.13225e-30
-2.12937e-30
-2.12464e-30
-2.13582e-30
-2.12363e-30
-2.13111e-30
-2.12677e-30
-2.1287e-30
-2.13639e-30
-2.12234e-30
-2.12677e-30
-2.12818e-30
-2.12926e-30
-2.12881e-30
-2.1305e-30
-2.13043e-30
-2.12738e-30
-2.12777e-30
-2.12237e-30
-2.12315e-30
-2.12006e-30
-2.07076e-30
-2.15704e-30
-2.16937e-30
-2.36658e-30
-2.36658e-30
0
-3.15544e-30
-6.31089e-30
0
1.97215e-31
-1.97215e-31
-2.46519e-32
6.16298e-32
1.2326e-32
8.76298e-33
-7.70372e-33
7.41483e-33
-3.4426e-33
7.65557e-33
5.41668e-35
-6.30291e-33
1.52871e-33
5.06535e-33
-6.31193e-34
1.60081e-33
-6.6781e-33
-1.60327e-33
-3.10542e-33
1.00054e-32
1.60695e-33
-8.15448e-35
1.28784e-33
-5.08793e-33
-2.12953e-34
-7.29577e-33
6.97336e-33
9.3473e-34
3.04538e-33
-9.50051e-33
5.10842e-33
9.50606e-34
-1.18343e-33
2.62193e-33
-6.16817e-33
7.63803e-33
-7.11573e-33
-1.70212e-33
5.97664e-33
-3.78418e-33
2.25524e-33
-2.6879e-33
7.49621e-33
-3.81205e-33
-5.59387e-33
3.88792e-33
-1.27893e-33
6.96144e-33
-3.88932e-33
-2.3545e-33
-1.95973e-33
-1.32917e-33
6.83434e-33
1.99366e-33
-3.05184e-33
7.29338e-34
-1.23312e-33
-5.83218e-33
5.32118e-34
1.30343e-33
1.22304e-34
4.82619e-33
3.67248e-34
-6.27974e-33
9.75217e-33
-6.03361e-33
5.9631e-33
-2.92186e-33
-6.86049e-33
3.09356e-33
-1.28532e-34
-2.1089e-33
6.07865e-33
-3.99644e-33
4.18351e-33
5.27007e-34
-5.79007e-33
1.04966e-32
-9.03227e-33
3.3534e-33
-2.37789e-33
-3.69768e-33
3.53169e-33
3.57859e-35
7.14702e-34
-1.39071e-33
1.77627e-33
-2.89225e-34
4.43789e-33
-4.04976e-33
4.51063e-33
-9.66469e-33
-9.02967e-34
8.04209e-33
-4.34771e-36
-6.34712e-33
1.132e-33
1.84344e-34
2.40346e-33
-3.05188e-33
4.07071e-33
1.44003e-33
-4.25089e-33
4.28902e-33
-2.42329e-33
-3.40751e-33
4.70712e-33
-5.71089e-33
6.01292e-33
2.40595e-33
-2.72131e-35
9.4304e-34
-4.25537e-33
-3.45306e-33
-3.46464e-33
7.13008e-33
2.75717e-34
1.05821e-33
-1.0888e-33
-4.24538e-33
6.43998e-33
-1.73732e-33
3.262e-33
-6.47478e-33
3.72723e-33
-4.08923e-33
3.57638e-33
2.26981e-33
-9.57359e-34
-1.87783e-33
-1.51864e-33
-1.04148e-33
-1.20631e-34
1.03784e-33
8.1424e-34
1.29961e-33
-2.95839e-33
5.81773e-33
-3.44427e-33
-3.26799e-33
6.29944e-34
2.97947e-33
4.32762e-33
-7.24031e-33
4.49002e-33
-4.44507e-33
-4.96891e-34
2.91559e-33
-4.83171e-34
-2.0536e-33
-3.07034e-33
-2.77612e-34
2.07927e-33
5.32132e-33
-5.45231e-33
4.86797e-33
-3.75623e-33
-5.93068e-33
3.589e-33
3.34425e-33
2.08747e-33
4.43633e-33
-7.36726e-33
-2.46339e-34
5.79025e-33
-8.53555e-33
7.56702e-33
-5.89742e-33
6.30817e-33
-1.48249e-33
-4.43003e-33
6.68513e-33
-5.22779e-33
2.65927e-33
-3.01362e-33
4.65823e-33
1.30414e-33
-6.05954e-33
-3.28066e-33
3.09803e-33
9.89514e-34
-2.78505e-33
2.51958e-34
-8.58704e-34
1.64325e-33
1.76199e-33
-4.14496e-33
6.48908e-33
-2.67722e-33
5.26425e-33
-4.11992e-33
1.36842e-33
-5.84554e-33
5.25745e-33
-1.1877e-33
-2.79968e-33
6.86483e-33
2.32884e-33
-9.839e-33
2.02858e-33
6.37194e-33
-6.46523e-33
2.04866e-33
1.19799e-33
-1.20043e-33
1.5075e-33
1.67982e-33
-4.6614e-33
2.78057e-33
3.67541e-33
-5.9353e-33
3.92876e-33
-6.14141e-33
7.96326e-33
-4.07045e-33
-6.69387e-33
5.19601e-33
2.17354e-33
3.98686e-33
-2.69959e-33
-2.49848e-33
3.20758e-33
-3.66828e-33
2.03484e-33
-2.5233e-33
-3.68903e-33
7.80221e-33
-3.79192e-33
1.83631e-33
2.00116e-33
-1.30361e-33
-3.1263e-34
-3.39383e-33
2.43891e-33
-1.29096e-33
-1.92615e-33
3.05319e-33
-1.8157e-35
2.41583e-33
5.67901e-34
-2.40133e-34
-3.42095e-33
6.13305e-34
-9.54125e-34
2.5448e-33
-2.50331e-33
-2.51215e-33
3.65152e-33
3.86504e-33
-5.96636e-33
1.71609e-33
-3.35363e-34
3.29643e-33
-2.53016e-33
-6.92595e-33
2.34173e-33
4.28022e-33
6.15906e-34
-5.69381e-33
6.7496e-33
-5.66179e-33
3.9372e-33
3.48059e-33
4.09718e-34
3.63503e-34
)
;

boundaryField
{
    left
    {
        type            calculated;
        value           uniform 0;
    }
    right
    {
        type            calculated;
        value           uniform 0;
    }
    empty
    {
        type            empty;
        value           nonuniform 0();
    }
}


// ************************************************************************* //
