/*--------------------------------*- C++ -*----------------------------------*\
| =========                 |                                                 |
| \\      /  F ield         | OpenFOAM: The Open Source CFD Toolbox           |
|  \\    /   O peration     | Version:  v1706                                 |
|   \\  /    A nd           | Web:      www.OpenFOAM.com                      |
|    \\/     M anipulation  |                                                 |
\*---------------------------------------------------------------------------*/
FoamFile
{
    version     2.0;
    format      ascii;
    class       volVectorField;
    location    "100";
    object      U;
}
// * * * * * * * * * * * * * * * * * * * * * * * * * * * * * * * * * * * * * //

dimensions      [0 1 -1 0 0 0 0];


internalField   nonuniform List<vector> 
800
(
(4.9276e-33 0 0)
(-2.27299e-32 0 0)
(-4.33582e-32 0 0)
(-3.59892e-32 0 0)
(-4.38194e-32 0 0)
(-4.27683e-32 0 0)
(-4.31299e-32 0 0)
(-4.31243e-32 0 0)
(-4.31318e-32 0 0)
(-4.3124e-32 0 0)
(-4.31289e-32 0 0)
(-4.31273e-32 0 0)
(-4.31274e-32 0 0)
(-4.31275e-32 0 0)
(-4.31275e-32 0 0)
(-4.31275e-32 0 0)
(-4.31275e-32 0 0)
(-4.31275e-32 0 0)
(-4.31275e-32 0 0)
(-4.31275e-32 0 0)
(-4.31275e-32 0 0)
(-4.31275e-32 0 0)
(-4.31275e-32 0 0)
(-4.31275e-32 0 0)
(-4.31275e-32 0 0)
(-4.31275e-32 0 0)
(-4.31275e-32 0 0)
(-4.31275e-32 0 0)
(-4.31275e-32 0 0)
(-4.31275e-32 0 0)
(-4.31275e-32 0 0)
(-4.31275e-32 0 0)
(-4.31275e-32 0 0)
(-4.31275e-32 0 0)
(-4.31275e-32 0 0)
(-4.31275e-32 0 0)
(-4.31275e-32 0 0)
(-4.31275e-32 0 0)
(-4.31275e-32 0 0)
(-4.31275e-32 0 0)
(-4.31275e-32 0 0)
(-4.31275e-32 0 0)
(-4.31275e-32 0 0)
(-4.31275e-32 0 0)
(-4.31275e-32 0 0)
(-4.31275e-32 0 0)
(-4.31275e-32 0 0)
(-4.31275e-32 0 0)
(-4.31275e-32 0 0)
(-4.31275e-32 0 0)
(-4.31275e-32 0 0)
(-4.31275e-32 0 0)
(-4.31275e-32 0 0)
(-4.31275e-32 0 0)
(-4.31275e-32 0 0)
(-4.31275e-32 0 0)
(-4.31275e-32 0 0)
(-4.31275e-32 0 0)
(-4.31275e-32 0 0)
(-4.31275e-32 0 0)
(-4.31275e-32 0 0)
(-4.31275e-32 0 0)
(-4.31275e-32 0 0)
(-4.31275e-32 0 0)
(-4.31275e-32 0 0)
(-4.31275e-32 0 0)
(-4.31275e-32 0 0)
(-4.31275e-32 0 0)
(-4.31275e-32 0 0)
(-4.31275e-32 0 0)
(-4.31275e-32 0 0)
(-4.31275e-32 0 0)
(-4.31275e-32 0 0)
(-4.31275e-32 0 0)
(-4.31275e-32 0 0)
(-4.31275e-32 0 0)
(-4.31275e-32 0 0)
(-4.31275e-32 0 0)
(-4.31275e-32 0 0)
(-4.31275e-32 0 0)
(-4.31275e-32 0 0)
(-4.31275e-32 0 0)
(-4.31275e-32 0 0)
(-4.31275e-32 0 0)
(-4.31275e-32 0 0)
(-4.31275e-32 0 0)
(-4.31275e-32 0 0)
(-4.31275e-32 0 0)
(-4.31275e-32 0 0)
(-4.31275e-32 0 0)
(-4.31275e-32 0 0)
(-4.31275e-32 0 0)
(-4.31275e-32 0 0)
(-4.31275e-32 0 0)
(-4.31275e-32 0 0)
(-4.31275e-32 0 0)
(-4.31275e-32 0 0)
(-4.31275e-32 0 0)
(-4.31275e-32 0 0)
(-4.31275e-32 0 0)
(-4.31275e-32 0 0)
(-4.31275e-32 0 0)
(-4.31275e-32 0 0)
(-4.31275e-32 0 0)
(-4.31275e-32 0 0)
(-4.31275e-32 0 0)
(-4.31275e-32 0 0)
(-4.31275e-32 0 0)
(-4.31275e-32 0 0)
(-4.31275e-32 0 0)
(-4.31275e-32 0 0)
(-4.31275e-32 0 0)
(-4.31275e-32 0 0)
(-4.31275e-32 0 0)
(-4.31275e-32 0 0)
(-4.31275e-32 0 0)
(-4.31275e-32 0 0)
(-4.31275e-32 0 0)
(-4.31275e-32 0 0)
(-4.31275e-32 0 0)
(-4.31275e-32 0 0)
(-4.31275e-32 0 0)
(-4.31275e-32 0 0)
(-4.31275e-32 0 0)
(-4.31275e-32 0 0)
(-4.31275e-32 0 0)
(-4.31275e-32 0 0)
(-4.31275e-32 0 0)
(-4.31275e-32 0 0)
(-4.31275e-32 0 0)
(-4.31275e-32 0 0)
(-4.31275e-32 0 0)
(-4.31275e-32 0 0)
(-4.31275e-32 0 0)
(-4.31275e-32 0 0)
(-4.31275e-32 0 0)
(-4.31275e-32 0 0)
(-4.31275e-32 0 0)
(-4.31275e-32 0 0)
(-4.31275e-32 0 0)
(-4.31275e-32 0 0)
(-4.31275e-32 0 0)
(-4.31275e-32 0 0)
(-4.31275e-32 0 0)
(-4.31275e-32 0 0)
(-4.31275e-32 0 0)
(-4.31275e-32 0 0)
(-4.31275e-32 0 0)
(-4.31275e-32 0 0)
(-4.31275e-32 0 0)
(-4.31275e-32 0 0)
(-4.31275e-32 0 0)
(-4.31275e-32 0 0)
(-4.31275e-32 0 0)
(-4.31275e-32 0 0)
(-4.31275e-32 0 0)
(-4.31275e-32 0 0)
(-4.31275e-32 0 0)
(-4.31275e-32 0 0)
(-4.31275e-32 0 0)
(-4.31275e-32 0 0)
(-4.31275e-32 0 0)
(-4.31275e-32 0 0)
(-4.31275e-32 0 0)
(-4.31275e-32 0 0)
(-4.31275e-32 0 0)
(-4.31275e-32 0 0)
(-4.31275e-32 0 0)
(-4.31275e-32 0 0)
(-4.31275e-32 0 0)
(-4.31275e-32 0 0)
(-4.31275e-32 0 0)
(-4.31275e-32 0 0)
(-4.31275e-32 0 0)
(-4.31275e-32 0 0)
(-4.31275e-32 0 0)
(-4.31275e-32 0 0)
(-4.31275e-32 0 0)
(-4.31275e-32 0 0)
(-4.31275e-32 0 0)
(-4.31275e-32 0 0)
(-4.31275e-32 0 0)
(-4.31275e-32 0 0)
(-4.31275e-32 0 0)
(-4.31275e-32 0 0)
(-4.31275e-32 0 0)
(-4.31275e-32 0 0)
(-4.31275e-32 0 0)
(-4.31275e-32 0 0)
(-4.31275e-32 0 0)
(-4.31275e-32 0 0)
(-4.31275e-32 0 0)
(-4.31275e-32 0 0)
(-4.31275e-32 0 0)
(-4.31275e-32 0 0)
(-4.31275e-32 0 0)
(-4.31275e-32 0 0)
(-4.31275e-32 0 0)
(-4.31275e-32 0 0)
(-4.31275e-32 0 0)
(-4.31275e-32 0 0)
(-4.31275e-32 0 0)
(-4.31275e-32 0 0)
(-4.31275e-32 0 0)
(-4.31275e-32 0 0)
(-4.31275e-32 0 0)
(-4.31275e-32 0 0)
(-4.31275e-32 0 0)
(-4.31275e-32 0 0)
(-4.31275e-32 0 0)
(-4.31275e-32 0 0)
(-4.31275e-32 0 0)
(-4.31275e-32 0 0)
(-4.31275e-32 0 0)
(-4.31275e-32 0 0)
(-4.31275e-32 0 0)
(-4.31275e-32 0 0)
(-4.31275e-32 0 0)
(-4.31275e-32 0 0)
(-4.31275e-32 0 0)
(-4.31275e-32 0 0)
(-4.31275e-32 0 0)
(-4.31275e-32 0 0)
(-4.31275e-32 0 0)
(-4.31275e-32 0 0)
(-4.31275e-32 0 0)
(-4.31275e-32 0 0)
(-4.31275e-32 0 0)
(-4.31275e-32 0 0)
(-4.31275e-32 0 0)
(-4.31275e-32 0 0)
(-4.31275e-32 0 0)
(-4.31275e-32 0 0)
(-4.31275e-32 0 0)
(-4.31275e-32 0 0)
(-4.31275e-32 0 0)
(-4.31275e-32 0 0)
(-4.31275e-32 0 0)
(-4.31275e-32 0 0)
(-4.31275e-32 0 0)
(-4.31275e-32 0 0)
(-4.31275e-32 0 0)
(-4.31275e-32 0 0)
(-4.31275e-32 0 0)
(-4.31275e-32 0 0)
(-4.31275e-32 0 0)
(-4.31275e-32 0 0)
(-4.31275e-32 0 0)
(-4.31275e-32 0 0)
(-4.31275e-32 0 0)
(-4.31275e-32 0 0)
(-4.31275e-32 0 0)
(-4.31275e-32 0 0)
(-4.31275e-32 0 0)
(-4.31275e-32 0 0)
(-4.31275e-32 0 0)
(-4.31275e-32 0 0)
(-4.31275e-32 0 0)
(-4.31275e-32 0 0)
(-4.31275e-32 0 0)
(-4.31275e-32 0 0)
(-4.31275e-32 0 0)
(-4.31275e-32 0 0)
(-4.31275e-32 0 0)
(-4.31275e-32 0 0)
(-4.31275e-32 0 0)
(-4.31275e-32 0 0)
(-4.31275e-32 0 0)
(-4.31275e-32 0 0)
(-4.31275e-32 0 0)
(-4.31275e-32 0 0)
(-4.31275e-32 0 0)
(-4.31275e-32 0 0)
(-4.31275e-32 0 0)
(-4.31275e-32 0 0)
(-4.31276e-32 0 0)
(-4.31277e-32 0 0)
(-4.31279e-32 0 0)
(-4.31284e-32 0 0)
(-4.31294e-32 0 0)
(-4.31317e-32 0 0)
(-4.31365e-32 0 0)
(-4.31457e-32 0 0)
(-4.3159e-32 0 0)
(-4.31637e-32 0 0)
(-4.31139e-32 0 0)
(-4.28601e-32 0 0)
(-4.17446e-32 0 0)
(-3.70497e-32 0 0)
(-2.01549e-32 0 0)
(2.81076e-32 0 0)
(1.51329e-31 0 0)
(5.37242e-31 0 0)
(2.00832e-30 0 0)
(6.70275e-30 0 0)
(1.6521e-29 0 0)
(3.6348e-29 0 0)
(1.13941e-28 0 0)
(4.65609e-28 0 0)
(1.34223e-27 0 0)
(2.4475e-27 0 0)
(4.75828e-27 0 0)
(2.31082e-26 0 0)
(9.30834e-26 0 0)
(1.9434e-25 0 0)
(2.0962e-25 0 0)
(7.93273e-25 0 0)
(5.35791e-24 0 0)
(1.58912e-23 0 0)
(1.50539e-23 0 0)
(-4.41221e-24 0 0)
(1.99789e-22 0 0)
(4.09037e-22 0 0)
(1.25006e-21 0 0)
(4.10595e-21 0 0)
(-1.05596e-19 0 0)
(1.59347e-20 0 0)
(9.75446e-19 0 0)
(2.17611e-18 0 0)
(-9.92859e-18 0 0)
(2.05185e-17 0 0)
(-2.92521e-17 0 0)
(1.35016e-17 0 0)
(8.32777e-18 0 0)
(1.92238e-18 0 0)
(-1.00089e-17 0 0)
(-1.32084e-17 0 0)
(2.12635e-17 0 0)
(-5.76151e-18 0 0)
(1.36984e-17 0 0)
(-2.8242e-17 0 0)
(2.9028e-18 0 0)
(3.8463e-17 0 0)
(-4.28361e-17 0 0)
(2.33537e-17 0 0)
(-1.44035e-17 0 0)
(8.01525e-18 0 0)
(2.4823e-18 0 0)
(-2.18436e-17 0 0)
(3.25662e-17 0 0)
(-6.48485e-18 0 0)
(-1.66621e-17 0 0)
(3.01882e-18 0 0)
(8.60564e-18 0 0)
(-3.93061e-19 0 0)
(9.18759e-18 0 0)
(-2.92697e-17 0 0)
(1.3952e-17 0 0)
(1.28146e-17 0 0)
(-5.77778e-18 0 0)
(-1.35643e-17 0 0)
(1.5728e-17 0 0)
(-3.99636e-18 0 0)
(-1.22509e-17 0 0)
(3.35773e-17 0 0)
(-3.75742e-17 0 0)
(3.62889e-18 0 0)
(2.1795e-17 0 0)
(-2.12106e-17 0 0)
(1.63711e-17 0 0)
(-5.10828e-19 0 0)
(-3.72867e-18 0 0)
(2.91097e-18 0 0)
(-2.478e-17 0 0)
(2.78347e-17 0 0)
(-1.42728e-19 0 0)
(-1.2083e-17 0 0)
(5.2776e-18 0 0)
(-1.27425e-17 0 0)
(2.21417e-17 0 0)
(-2.1124e-17 0 0)
(2.40712e-17 0 0)
(-1.0923e-17 0 0)
(-6.17891e-18 0 0)
(-9.12112e-18 0 0)
(1.62116e-17 0 0)
(-4.51385e-18 0 0)
(2.24056e-17 0 0)
(-3.01636e-17 0 0)
(-6.34852e-18 0 0)
(3.00344e-17 0 0)
(-3.25726e-17 0 0)
(3.73196e-17 0 0)
(-3.06887e-17 0 0)
(2.37562e-17 0 0)
(-3.09272e-17 0 0)
(2.32464e-17 0 0)
(-4.47138e-18 0 0)
(1.90068e-17 0 0)
(-4.04558e-17 0 0)
(2.14176e-17 0 0)
(7.35951e-18 0 0)
(-1.28205e-17 0 0)
(8.35324e-18 0 0)
(-7.44062e-18 0 0)
(5.87259e-18 0 0)
(1.70864e-20 0 0)
(-1.4143e-18 0 0)
(9.54933e-18 0 0)
(-2.45173e-17 0 0)
(1.74681e-17 0 0)
(-6.63507e-18 0 0)
(8.536e-18 0 0)
(-8.58639e-18 0 0)
(1.36689e-17 0 0)
(-6.7031e-18 0 0)
(-1.2185e-17 0 0)
(6.73848e-18 0 0)
(9.28613e-18 0 0)
(-1.90138e-17 0 0)
(1.93779e-17 0 0)
(1.29561e-18 0 0)
(-8.59492e-18 0 0)
(-1.11245e-17 0 0)
(1.64418e-17 0 0)
(-3.6207e-18 0 0)
(2.90794e-19 0 0)
(-2.05639e-18 0 0)
(-5.38126e-18 0 0)
(-1.22883e-18 0 0)
(9.27614e-18 0 0)
(1.51081e-17 0 0)
(-2.40216e-17 0 0)
(2.55723e-18 0 0)
(1.45925e-18 0 0)
(5.74607e-18 0 0)
(-2.6347e-18 0 0)
(3.17558e-19 0 0)
(-9.70656e-18 0 0)
(2.49175e-17 0 0)
(-3.32893e-17 0 0)
(1.25365e-17 0 0)
(2.39191e-17 0 0)
(-1.514e-17 0 0)
(-1.48835e-17 0 0)
(9.57921e-18 0 0)
(-1.03174e-17 0 0)
(2.16041e-17 0 0)
(2.32974e-18 0 0)
(-2.61215e-17 0 0)
(2.04698e-17 0 0)
(-1.65591e-17 0 0)
(2.0397e-17 0 0)
(-2.00977e-17 0 0)
(1.79138e-17 0 0)
(-1.20967e-17 0 0)
(-1.32319e-17 0 0)
(3.60717e-17 0 0)
(-1.3149e-17 0 0)
(-1.38973e-17 0 0)
(4.04901e-18 0 0)
(2.34937e-18 0 0)
(1.20974e-17 0 0)
(-1.32277e-17 0 0)
(-2.17584e-18 0 0)
(1.41222e-17 0 0)
(-2.72779e-17 0 0)
(2.73097e-17 0 0)
(-3.51039e-18 0 0)
(-8.07231e-18 0 0)
(3.34044e-18 0 0)
(-2.6204e-17 0 0)
(5.69374e-17 0 0)
(-3.41283e-17 0 0)
(-1.68963e-17 0 0)
(2.81314e-17 0 0)
(-7.79252e-18 0 0)
(1.02382e-17 0 0)
(-2.41481e-17 0 0)
(1.44808e-17 0 0)
(8.99226e-19 0 0)
(3.12676e-18 0 0)
(-1.63737e-17 0 0)
(2.19814e-17 0 0)
(-7.60248e-18 0 0)
(-2.92837e-17 0 0)
(4.46023e-17 0 0)
(-2.71941e-17 0 0)
(1.31275e-17 0 0)
(1.68834e-18 0 0)
(-1.24356e-17 0 0)
(4.86768e-18 0 0)
(1.49564e-18 0 0)
(-2.75303e-19 0 0)
(-1.99365e-19 0 0)
(-6.09524e-21 0 0)
(1.90547e-20 0 0)
(4.04708e-21 0 0)
(-1.17603e-21 0 0)
(-6.07707e-22 0 0)
(1.71088e-23 0 0)
(6.08041e-23 0 0)
(7.63085e-24 0 0)
(-4.20372e-24 0 0)
(-1.29168e-24 0 0)
(2.31489e-25 0 0)
(1.38778e-25 0 0)
(-2.46431e-27 0 0)
(-1.11903e-26 0 0)
(-1.00153e-27 0 0)
(1.0282e-27 0 0)
(1.67408e-28 0 0)
(-5.3971e-29 0 0)
(-9.83812e-30 0 0)
(3.64867e-29 0 0)
(3.21716e-29 0 0)
(3.69625e-29 0 0)
(-2.10342e-28 0 0)
(-6.42594e-30 0 0)
(-1.81847e-27 0 0)
(-4.12659e-27 0 0)
(-3.31718e-26 0 0)
(-1.05285e-25 0 0)
(-3.54816e-25 0 0)
(-4.11362e-25 0 0)
(-7.92102e-25 0 0)
(1.0731e-24 0 0)
(-3.78972e-24 0 0)
(-2.45135e-23 0 0)
(-1.13437e-22 0 0)
(-7.24878e-23 0 0)
(1.98197e-22 0 0)
(2.94352e-21 0 0)
(5.04035e-21 0 0)
(-2.97273e-21 0 0)
(-6.69612e-20 0 0)
(-1.85764e-19 0 0)
(-4.48762e-19 0 0)
(4.4595e-19 0 0)
(3.96677e-18 0 0)
(4.03904e-18 0 0)
(-2.03115e-17 0 0)
(3.10721e-18 0 0)
(1.88645e-17 0 0)
(-7.74168e-18 0 0)
(-2.28221e-18 0 0)
(3.1191e-19 0 0)
(2.27355e-19 0 0)
(-2.72195e-20 0 0)
(-4.83188e-21 0 0)
(5.01225e-22 0 0)
(1.67472e-22 0 0)
(-1.86518e-22 0 0)
(-4.86458e-23 0 0)
(-1.29219e-23 0 0)
(-5.35685e-24 0 0)
(-2.48071e-24 0 0)
(-8.37839e-25 0 0)
(-2.94714e-25 0 0)
(-1.0941e-25 0 0)
(-4.06182e-26 0 0)
(-1.44829e-26 0 0)
(-5.20993e-27 0 0)
(-1.8853e-27 0 0)
(-6.80158e-28 0 0)
(-2.43824e-28 0 0)
(-8.74255e-29 0 0)
(-3.13113e-29 0 0)
(-1.11824e-29 0 0)
(-3.98029e-30 0 0)
(-1.41265e-30 0 0)
(-4.99532e-31 0 0)
(-1.75841e-31 0 0)
(-6.15723e-32 0 0)
(-2.14302e-32 0 0)
(-7.40992e-33 0 0)
(-2.54753e-33 0 0)
(-8.60297e-34 0 0)
(-2.8261e-34 0 0)
(-9.90533e-35 0 0)
(-3.01857e-35 0 0)
(-1.53946e-35 0 0)
(4.25726e-37 0 0)
(2.743e-36 0 0)
(-1.0945e-36 0 0)
(-2.62031e-36 0 0)
(-5.46353e-36 0 0)
(7.70561e-36 0 0)
(-1.34755e-36 0 0)
(-8.13829e-36 0 0)
(1.718e-35 0 0)
(-1.37686e-35 0 0)
(1.09171e-35 0 0)
(3.12785e-37 0 0)
(-1.21625e-35 0 0)
(9.85862e-36 0 0)
(-1.47889e-35 0 0)
(1.83912e-35 0 0)
(-3.89787e-36 0 0)
(-1.43505e-36 0 0)
(1.00533e-35 0 0)
(-1.89319e-35 0 0)
(9.92812e-36 0 0)
(-1.69177e-35 0 0)
(2.03905e-35 0 0)
(-5.34312e-36 0 0)
(1.01003e-35 0 0)
(-1.71458e-35 0 0)
(5.29349e-36 0 0)
(-3.83824e-36 0 0)
(1.08184e-35 0 0)
(9.85622e-37 0 0)
(-4.61744e-36 0 0)
(-1.01395e-35 0 0)
(1.58395e-36 0 0)
(-1.56267e-36 0 0)
(-3.45881e-36 0 0)
(1.15701e-35 0 0)
(-2.0275e-36 0 0)
(1.886e-35 0 0)
(-1.7891e-35 0 0)
(9.21715e-36 0 0)
(-8.33528e-36 0 0)
(4.63295e-36 0 0)
(-4.58162e-36 0 0)
(-5.61789e-36 0 0)
(1.05324e-35 0 0)
(-9.74848e-36 0 0)
(7.32112e-36 0 0)
(-1.39875e-35 0 0)
(1.13136e-35 0 0)
(7.79481e-37 0 0)
(7.88993e-36 0 0)
(5.01772e-36 0 0)
(-1.55381e-35 0 0)
(1.30998e-36 0 0)
(-5.17042e-36 0 0)
(-1.97655e-36 0 0)
(1.41123e-36 0 0)
(1.32768e-35 0 0)
(-1.78552e-35 0 0)
(1.45329e-35 0 0)
(-1.39797e-36 0 0)
(-2.78512e-36 0 0)
(-2.16611e-36 0 0)
(1.0079e-35 0 0)
(7.52456e-38 0 0)
(-2.28627e-36 0 0)
(-7.97379e-36 0 0)
(1.42352e-37 0 0)
(8.00944e-36 0 0)
(-2.5482e-36 0 0)
(-5.30032e-36 0 0)
(8.65909e-37 0 0)
(1.51015e-35 0 0)
(-8.50192e-36 0 0)
(-1.02267e-35 0 0)
(5.3811e-36 0 0)
(-4.10314e-36 0 0)
(-4.27488e-36 0 0)
(1.64147e-35 0 0)
(-6.22157e-36 0 0)
(-1.9803e-36 0 0)
(7.06006e-36 0 0)
(-5.58241e-36 0 0)
(-6.14019e-36 0 0)
(1.13034e-35 0 0)
(-1.18266e-35 0 0)
(1.05894e-35 0 0)
(-1.19152e-35 0 0)
(1.11849e-35 0 0)
(-3.73637e-36 0 0)
(1.62815e-35 0 0)
(-2.35677e-35 0 0)
(1.76708e-35 0 0)
(-1.05653e-35 0 0)
(-1.90947e-36 0 0)
(2.704e-36 0 0)
(9.76971e-36 0 0)
(-1.27794e-35 0 0)
(3.32369e-37 0 0)
(1.05021e-35 0 0)
(-1.06934e-35 0 0)
(-6.45306e-37 0 0)
(1.62843e-36 0 0)
(-1.62552e-36 0 0)
(7.76865e-36 0 0)
(-6.19987e-36 0 0)
(1.38726e-36 0 0)
(4.10911e-36 0 0)
(-1.71188e-37 0 0)
(-1.10766e-36 0 0)
(-1.86075e-36 0 0)
(5.48222e-36 0 0)
(-1.41189e-35 0 0)
(1.1295e-35 0 0)
(-9.62075e-36 0 0)
(-2.08858e-36 0 0)
(8.69863e-36 0 0)
(-2.97326e-37 0 0)
(1.56555e-36 0 0)
(-1.81808e-35 0 0)
(1.92927e-35 0 0)
(-1.54043e-35 0 0)
(2.46404e-35 0 0)
(-1.60621e-35 0 0)
(8.15548e-36 0 0)
(-1.53281e-36 0 0)
(1.74605e-36 0 0)
(-1.18672e-35 0 0)
(-6.40652e-37 0 0)
(-1.67865e-36 0 0)
(1.26345e-35 0 0)
(-6.58337e-36 0 0)
(1.14954e-35 0 0)
(-1.62588e-35 0 0)
(3.05266e-36 0 0)
(1.019e-35 0 0)
(1.9163e-36 0 0)
(-6.44896e-36 0 0)
(6.66191e-36 0 0)
(-5.96772e-36 0 0)
(-5.5336e-36 0 0)
(-4.06843e-37 0 0)
(2.70084e-36 0 0)
(2.43278e-36 0 0)
(-2.67938e-36 0 0)
(1.22686e-36 0 0)
(-8.12524e-36 0 0)
(1.23423e-35 0 0)
(-1.09145e-35 0 0)
(4.39295e-36 0 0)
(1.53e-36 0 0)
(2.57966e-36 0 0)
(5.28847e-36 0 0)
(-1.54557e-37 0 0)
(-8.05745e-36 0 0)
(5.09207e-36 0 0)
(-7.82445e-36 0 0)
(-1.71688e-37 0 0)
(4.5974e-36 0 0)
(8.04693e-36 0 0)
(-3.42729e-36 0 0)
(5.72487e-38 0 0)
(-5.46387e-36 0 0)
(9.63277e-37 0 0)
(9.12195e-36 0 0)
(-2.19134e-35 0 0)
(2.39503e-35 0 0)
(-9.47304e-36 0 0)
(7.55065e-36 0 0)
(-5.10749e-36 0 0)
(2.56519e-36 0 0)
(-2.22976e-36 0 0)
(5.27823e-36 0 0)
(-1.32927e-35 0 0)
(6.46041e-37 0 0)
(6.83312e-36 0 0)
(-8.38928e-36 0 0)
(3.29942e-36 0 0)
(-4.35864e-37 0 0)
(3.10655e-36 0 0)
(-1.26905e-37 0 0)
(-2.99941e-36 0 0)
(4.887e-36 0 0)
(-3.16491e-36 0 0)
(5.94791e-36 0 0)
(-1.06963e-35 0 0)
(2.01649e-35 0 0)
(-2.41762e-35 0 0)
(1.04304e-35 0 0)
(-2.71006e-36 0 0)
(-6.27153e-36 0 0)
(9.78342e-36 0 0)
(6.08747e-36 0 0)
(-3.02674e-36 0 0)
(-2.64394e-36 0 0)
(-5.28065e-36 0 0)
(8.20861e-36 0 0)
(-1.75362e-35 0 0)
(1.49221e-35 0 0)
(-5.70601e-36 0 0)
(9.48414e-36 0 0)
(4.55705e-37 0 0)
(-9.6277e-36 0 0)
(5.11244e-36 0 0)
(-2.12516e-36 0 0)
(-4.77216e-36 0 0)
(-4.03896e-36 0 0)
(4.63872e-36 0 0)
(-3.64477e-36 0 0)
(5.98498e-36 0 0)
(8.06299e-37 0 0)
(2.13442e-37 0 0)
(-7.62323e-36 0 0)
(9.95216e-36 0 0)
(-1.07533e-35 0 0)
(8.50778e-36 0 0)
(-4.70071e-36 0 0)
(-7.72379e-37 0 0)
(7.71567e-36 0 0)
(-5.5773e-36 0 0)
(8.10664e-36 0 0)
(-1.06326e-36 0 0)
(2.0711e-36 0 0)
(-5.93021e-36 0 0)
(-1.11864e-38 0 0)
(-3.19509e-36 0 0)
(1.03471e-35 0 0)
(2.65687e-37 0 0)
)
;

boundaryField
{
    left
    {
        type            noSlip;
    }
    right
    {
        type            noSlip;
    }
    empty
    {
        type            empty;
    }
}


// ************************************************************************* //
