/*--------------------------------*- C++ -*----------------------------------*\
| =========                 |                                                 |
| \\      /  F ield         | OpenFOAM: The Open Source CFD Toolbox           |
|  \\    /   O peration     | Version:  2106                                  |
|   \\  /    A nd           | Website:  www.openfoam.com                      |
|    \\/     M anipulation  |                                                 |
\*---------------------------------------------------------------------------*/
FoamFile
{
    version     2.0;
    format      ascii;
    arch        "LSB;label=32;scalar=64";
    class       surfaceScalarField;
    location    "0.285";
    object      phi;
}
// * * * * * * * * * * * * * * * * * * * * * * * * * * * * * * * * * * * * * //

dimensions      [0 3 -1 0 0 0 0];

oriented        oriented;

internalField   nonuniform List<scalar> 
22100
(
3.38461202757e-05
1.61538797246e-05
2.24572096918e-05
1.13889104294e-05
1.62585526282e-05
6.19865682741e-06
1.27977755261e-05
3.46077693819e-06
1.08046415027e-05
1.99313384231e-06
9.60458834203e-06
1.20005299541e-06
8.85132043913e-06
7.53267718786e-07
8.36435147641e-06
4.86968766784e-07
8.04433346157e-06
3.20017829716e-07
7.83283853395e-06
2.11494735779e-07
7.69339523905e-06
1.39443097382e-07
7.60223822325e-06
9.11568179073e-08
7.54347531373e-06
5.87627159535e-08
7.50633826796e-06
3.71368584444e-08
7.48349862409e-06
2.28394672531e-08
7.46997766185e-06
1.352079734e-08
7.46241289844e-06
7.56461592027e-09
7.45854471185e-06
3.86804895089e-09
7.4568254932e-06
1.71908965213e-09
7.4564187188e-06
4.06652136469e-10
7.45676838035e-06
-3.4977823627e-10
7.45745439047e-06
-6.86122321525e-10
7.45821257103e-06
-7.58284257865e-10
7.45893772449e-06
-7.25251759464e-10
7.45958190519e-06
-6.44266377031e-10
7.46012573685e-06
-5.43900732428e-10
7.46056777766e-06
-4.42094250835e-10
7.46091648321e-06
-3.48746622921e-10
7.461184762e-06
-2.68309830743e-10
7.46138670205e-06
-2.01963762497e-10
7.46153567988e-06
-1.48992891634e-10
7.46164340284e-06
-1.07726070077e-10
7.46171959617e-06
-7.61884513924e-11
7.46177238666e-06
-5.27756866394e-11
7.46180572395e-06
-3.33150876603e-11
7.4618245969e-06
-1.88427883976e-11
7.46183376047e-06
-9.13588722162e-12
7.46183665574e-06
-2.87110865442e-12
7.46183522872e-06
1.45334243503e-12
7.46183062202e-06
4.64624968543e-12
7.46182376929e-06
6.90619614676e-12
7.4618152741e-06
8.56047217859e-12
7.46180550599e-06
9.84124668034e-12
7.46179464868e-06
1.09449103201e-11
7.46178271498e-06
1.20425303486e-11
7.46176957951e-06
1.32596997152e-11
7.46175501467e-06
1.46960486289e-11
7.46173869889e-06
1.64455965157e-11
7.46172021247e-06
1.86176590904e-11
7.46169902262e-06
2.13320274718e-11
7.46167451894e-06
2.46594902702e-11
7.46164599645e-06
2.86861781868e-11
7.46161265784e-06
3.34993760305e-11
7.46157364317e-06
3.91736751372e-11
7.46152806691e-06
4.57302232009e-11
7.46147508482e-06
5.31162339739e-11
7.46141400006e-06
6.11836983262e-11
7.46134468666e-06
6.93708388885e-11
7.46126785254e-06
7.68566419025e-11
7.46118593726e-06
8.19118899517e-11
7.46110520449e-06
8.07088756515e-11
7.46103784784e-06
6.73151321291e-11
7.46099159416e-06
4.61976721813e-11
7.46098561375e-06
5.91825343706e-12
7.46105582e-06
-7.02465905914e-11
7.46126043577e-06
-2.04628490928e-10
7.46169390808e-06
-4.33466768981e-10
7.46250627604e-06
-8.12351245055e-10
7.46393282173e-06
-1.4264856897e-09
7.46632909875e-06
-2.39612909803e-09
7.47014476791e-06
-3.8154298394e-09
7.47659023161e-06
-6.44516148472e-09
7.48735844117e-06
-1.07678541334e-08
7.5055321352e-06
-1.81732867756e-08
7.53871998067e-06
-3.31873488391e-08
7.60794628972e-06
-6.92257341302e-08
7.77464452975e-06
-1.66697789107e-07
8.22966529347e-06
-4.55020480612e-07
9.69767126982e-06
-1.46800540824e-06
-5.45302744489e-06
1.51506991492e-05
5.02175947246e-05
1.59362847147e-05
4.42441113332e-05
1.7362393524e-05
3.77795009769e-05
1.26632668249e-05
3.26461433025e-05
8.59413430529e-06
2.89380909562e-05
5.70118584217e-06
2.63596203254e-05
3.77852327781e-06
2.45875156802e-05
2.52537201919e-06
2.33734733799e-05
1.70101070726e-06
2.25435241019e-05
1.14996674608e-06
2.19782151993e-05
7.76803278332e-07
2.15955124687e-05
5.22145476996e-07
2.13387357184e-05
3.47933226691e-07
2.1168494029e-05
2.29004075745e-07
2.1057336267e-05
1.48294298917e-07
2.09861482148e-05
9.40272065338e-08
2.0941675714e-05
5.79930018698e-08
2.09147937873e-05
3.44462580726e-08
2.08992945849e-05
1.93669816438e-08
2.08910707705e-05
9.94264953671e-09
2.08872703752e-05
4.20680979444e-09
2.08862012797e-05
7.19099295865e-10
2.08864468743e-05
-9.31910782697e-10
2.08873181893e-05
-1.62977775881e-09
2.08884575747e-05
-1.86479360994e-09
2.08896308028e-05
-1.81762748848e-09
2.089071371e-05
-1.6269192149e-09
2.08916512403e-05
-1.37971500036e-09
2.08924287196e-05
-1.12629867992e-09
2.08930539141e-05
-8.9356001393e-10
2.08935460426e-05
-6.94127225392e-10
2.08939298723e-05
-5.32843861928e-10
2.08942314236e-05
-4.09284439132e-10
2.08944424225e-05
-2.87175802332e-10
2.08945895176e-05
-1.9984530715e-10
2.08946899305e-05
-1.33698951255e-10
2.08947553548e-05
-8.42326801611e-11
2.08947959541e-05
-4.97022582195e-11
2.08948199071e-05
-2.67782346049e-11
2.0894832032e-05
-1.06069475861e-11
2.08948352628e-05
1.50039776656e-12
2.08948320188e-05
1.02628846941e-11
2.08948239617e-05
1.67492749869e-11
2.08948122317e-05
2.17203551904e-11
2.08947975534e-05
2.5799626777e-11
2.08947803013e-05
2.94993801029e-11
2.08947606043e-05
3.31756195948e-11
2.0894738441e-05
3.70871687639e-11
2.08947136877e-05
4.14378855578e-11
2.08946861411e-05
4.64208273528e-11
2.08946555302e-05
5.22192752981e-11
2.08946216285e-05
5.88450875852e-11
2.08945842808e-05
6.63137272231e-11
2.08945434933e-05
7.45600019711e-11
2.08944995667e-05
8.33582832989e-11
2.08944533351e-05
9.21856978364e-11
2.0894406564e-05
1.00050935792e-10
2.08943625056e-05
1.05334946825e-10
2.08943271039e-05
1.04804594367e-10
2.08943098248e-05
9.41266287938e-11
2.08943258903e-05
6.58073459841e-11
2.08944020713e-05
4.46572339194e-12
2.08945872725e-05
-1.17968036451e-10
2.08949498008e-05
-3.16419277489e-10
2.0895608066e-05
-6.5242525559e-10
2.08966707822e-05
-1.13301103865e-09
2.089831396e-05
-1.84782010659e-09
2.09008954774e-05
-3.01494841632e-09
2.09049632861e-05
-4.88000923984e-09
2.09113866599e-05
-7.84952774272e-09
2.09215894537e-05
-1.25984261609e-08
2.09380621499e-05
-2.02875280483e-08
2.09649519399e-05
-3.33342883443e-08
2.1009199795e-05
-5.50150184245e-08
2.10839827164e-05
-9.29554644654e-08
2.12152348143e-05
-1.64438568622e-07
2.14558806571e-05
-3.09870617167e-07
2.19138138307e-05
-6.24630032012e-07
2.28010345812e-05
-1.34224025901e-06
2.44455332382e-05
-3.11250361496e-06
-7.04050673136e-06
2.60330153713e-05
5.35171051645e-05
1.24191793124e-05
5.29349679629e-05
1.79445304831e-05
4.96538395068e-05
1.59443949789e-05
4.58401805857e-05
1.24077929464e-05
4.24400912977e-05
9.10127484051e-06
3.9729171048e-05
6.48944323923e-06
3.76873042725e-05
4.56723849604e-06
3.6197661137e-05
3.19065353121e-06
3.51326102008e-05
2.215017373e-06
3.438236485e-05
1.52704831716e-06
3.38606235724e-05
1.04388643917e-06
3.35023430495e-05
7.06213443662e-07
3.32595978839e-05
4.71748952545e-07
3.30975873321e-05
3.10304578546e-07
3.29913310286e-05
2.00283258234e-07
3.29230889339e-05
1.2623485857e-07
3.28804007728e-05
7.71341913064e-08
3.28546154335e-05
4.5152105301e-08
3.28397881523e-05
2.47697266337e-08
3.2831861451e-05
1.21333162579e-08
3.28279917794e-05
4.58859038312e-09
3.28269929705e-05
6.67294082286e-11
3.28271735719e-05
-1.8105295975e-09
3.28280218231e-05
-2.71317306154e-09
3.28291374416e-05
-2.93335209003e-09
3.28302845423e-05
-2.7741052156e-09
3.28313403741e-05
-2.43561315551e-09
3.28322506276e-05
-2.0366051958e-09
3.28330004547e-05
-1.64342779768e-09
3.28335959448e-05
-1.28964104826e-09
3.28340520463e-05
-9.88955361489e-10
3.28343868459e-05
-7.44075186123e-10
3.2834653038e-05
-5.53344936275e-10
3.28348691833e-05
-4.15962218221e-10
3.28350162203e-05
-2.80704124616e-10
3.28351152664e-05
-1.83246598877e-10
3.28351809491e-05
-1.15351005681e-10
3.28352227073e-05
-6.84880435825e-11
3.28352474221e-05
-3.52546117947e-11
3.28352590543e-05
-1.00500127016e-11
3.2835261163e-05
8.24764659879e-12
3.28352562463e-05
2.17778024952e-11
3.28352461293e-05
3.19732891471e-11
3.28352320416e-05
4.00483469249e-11
3.28352147375e-05
4.69882011301e-11
3.28351946751e-05
5.34392988041e-11
3.28351721454e-05
5.98315572938e-11
3.28351473508e-05
6.64646647023e-11
3.28351203899e-05
7.36256999215e-11
3.2835091269e-05
8.15901070832e-11
3.28350602915e-05
9.00732128954e-11
3.28350280411e-05
9.88051699574e-11
3.28349955393e-05
1.0729760395e-10
3.28349645454e-05
1.14585406996e-10
3.28349380283e-05
1.1891358568e-10
3.28349206753e-05
1.17565378059e-10
3.28349193785e-05
1.06734027446e-10
3.28349455819e-05
7.86453324024e-11
3.28350165832e-05
2.31190725411e-11
3.28351620495e-05
-7.9699631731e-11
3.28354333226e-05
-2.66877894256e-10
3.28359191787e-05
-6.03918216642e-10
3.28366345765e-05
-1.03189929277e-09
3.28376739959e-05
-1.69189502921e-09
3.28392951221e-05
-2.75415137092e-09
3.28418742898e-05
-4.42699105211e-09
3.28459153146e-05
-7.05594600496e-09
3.28522325507e-05
-1.11971205055e-08
3.28621389726e-05
-1.7755683213e-08
3.28777990331e-05
-2.82580832677e-08
3.29028734991e-05
-4.53614734248e-08
3.29427141841e-05
-7.31743829647e-08
3.30071520109e-05
-1.19452205504e-07
3.31131727361e-05
-1.98975464074e-07
3.32897960064e-05
-3.4106112959e-07
3.35852392662e-05
-6.05313413048e-07
3.40706088382e-05
-1.10999918398e-06
3.48120864847e-05
-2.08371738541e-06
3.5673523159e-05
-3.97394145402e-06
-7.1094606819e-06
3.57424707117e-05
5.35105662926e-05
8.90861280351e-06
5.55742218441e-05
1.58808746528e-05
5.52424818778e-05
1.62761346571e-05
5.35977850855e-05
1.40524894592e-05
5.15418465635e-05
1.11572130703e-05
4.95802785305e-05
8.45101098324e-06
4.79243492294e-05
6.22316749839e-06
4.6618137066e-05
4.49686538749e-06
4.56304639796e-05
3.20269015545e-06
4.49051147497e-05
2.2523972422e-06
4.4384087281e-05
1.56491359801e-06
4.40166908638e-05
1.07360955941e-06
4.37619641157e-05
7.26475408025e-07
4.35882652701e-05
4.84003146438e-07
4.34718656869e-05
3.16682578424e-07
4.33953554047e-05
2.02744884807e-07
4.33461849327e-05
1.26304422058e-07
4.33154471458e-05
7.58896655734e-08
4.32969106274e-05
4.3306036377e-08
4.32862844172e-05
2.27593331497e-08
4.32806814394e-05
1.01913831239e-08
4.32778736512e-05
2.87434408312e-09
4.32770457557e-05
-9.82790508997e-10
4.32772635674e-05
-2.93111939653e-09
4.32779510454e-05
-3.62094042601e-09
4.32788140568e-05
-3.63720491042e-09
4.32796868253e-05
-3.30845449136e-09
4.32804842306e-05
-2.83407125981e-09
4.32811699223e-05
-2.32916625925e-09
4.3281735685e-05
-1.85543732111e-09
4.32821883547e-05
-1.44163947875e-09
4.32825406314e-05
-1.09635012024e-09
4.32828022684e-05
-8.14963132795e-10
4.32829775607e-05
-5.91227742406e-10
4.32831104855e-05
-4.13609310406e-10
4.3283195796e-05
-2.68541884586e-10
4.32832497283e-05
-1.69258994729e-10
4.3283289513e-05
-1.08229576807e-10
4.32833139394e-05
-5.96160322068e-11
4.32833260013e-05
-2.20310849561e-11
4.32833291169e-05
5.22562427197e-12
4.32833252499e-05
2.57556162728e-11
4.32833161055e-05
4.12457940933e-11
4.32833028499e-05
5.34539311222e-11
4.32832861337e-05
6.3878438856e-11
4.32832663861e-05
7.33792420016e-11
4.32832439395e-05
8.24807263523e-11
4.3283219088e-05
9.15333142916e-11
4.32831921824e-05
1.00762745689e-10
4.32831638003e-05
1.10210103709e-10
4.32831345679e-05
1.19539822244e-10
4.3283105451e-05
1.28157003364e-10
4.32830779187e-05
1.35069025508e-10
4.32830540695e-05
1.38667041022e-10
4.32830368108e-05
1.36374227568e-10
4.32830305107e-05
1.24019837322e-10
4.32830430996e-05
9.4242109364e-11
4.32830865648e-05
3.52219285056e-11
4.32831801271e-05
-7.044610637e-11
4.3283340994e-05
-2.4061589222e-10
4.3283579284e-05
-5.05255201727e-10
4.32840206815e-05
-1.04541468139e-09
4.32847888624e-05
-1.80016021867e-09
4.32860389543e-05
-2.94202621258e-09
4.3287978254e-05
-4.69346707046e-09
4.32909563804e-05
-7.40511661528e-09
4.32955328079e-05
-1.1632312831e-08
4.33025860721e-05
-1.82502176305e-08
4.33134982205e-05
-2.86675456155e-08
4.33304271571e-05
-4.5186621413e-08
4.33566821801e-05
-7.16160235031e-08
4.33978340398e-05
-1.14325741481e-07
4.34627347985e-05
-1.8435234801e-07
4.35651099448e-05
-3.01349780255e-07
4.37249157393e-05
-5.00866110888e-07
4.39667505758e-05
-8.47147520965e-07
4.43072810718e-05
-1.4505283084e-06
4.47077969954e-05
-2.48423155781e-06
4.49273429157e-05
-4.19348578822e-06
-6.58045999026e-06
4.43983390399e-05
5.27351378348e-05
6.17347478131e-06
5.57309340172e-05
1.28850781786e-05
5.7311473587e-05
1.46955948055e-05
5.7610990834e-05
1.37529719356e-05
5.71335214171e-05
1.16346821971e-05
5.63194666841e-05
9.26506543112e-06
5.54489863186e-05
7.09364756275e-06
5.46629755759e-05
5.2828758234e-06
5.40136798466e-05
3.85198558191e-06
5.35061483568e-05
2.75992842908e-06
5.31242522964e-05
1.94680935728e-06
5.28449826364e-05
1.35287892913e-06
5.26454363031e-05
9.26021463231e-07
5.25057120003e-05
6.23727186929e-07
5.24097171937e-05
4.12677127187e-07
5.23450111687e-05
2.67450665239e-07
5.23022733473e-05
1.69042004834e-07
5.22746861992e-05
1.03476589765e-07
5.22573616739e-05
6.06303571531e-08
5.22468529906e-05
3.32678239613e-08
5.22407532563e-05
1.62909373488e-08
5.22374443025e-05
6.18313165815e-09
5.22359454982e-05
5.15864525628e-10
5.22354373649e-05
-2.42311327538e-09
5.22355020955e-05
-3.68577355179e-09
5.22358473083e-05
-3.9825015217e-09
5.22363012861e-05
-3.76250284543e-09
5.2236767393e-05
-3.300234913e-09
5.22371945335e-05
-2.75634731229e-09
5.22375599865e-05
-2.22091324815e-09
5.22378570537e-05
-1.73871158133e-09
5.22380885277e-05
-1.3278086728e-09
5.22382646893e-05
-9.911010375e-10
5.22383974395e-05
-7.23958470027e-10
5.2238497667e-05
-5.13820571382e-10
5.22385821457e-05
-3.53002876225e-10
5.223864759e-05
-2.34673375745e-10
5.2238689839e-05
-1.504290855e-10
5.22387225773e-05
-9.22876277167e-11
5.22387379993e-05
-3.73733482166e-11
5.22387432666e-05
4.91335442293e-14
5.22387409581e-05
2.81663333566e-11
5.22387330322e-05
4.92981845677e-11
5.22387208198e-05
6.58231036505e-11
5.2238705183e-05
7.96949577209e-11
5.22386866909e-05
9.20689492137e-11
5.22386658401e-05
1.03544460383e-10
5.22386433757e-05
1.14222497113e-10
5.22386199974e-05
1.24370633954e-10
5.22385940088e-05
1.36430964812e-10
5.22385670685e-05
1.46713531087e-10
5.22385402765e-05
1.5519243621e-10
5.2238515194e-05
1.60406571724e-10
5.22384943354e-05
1.5977243021e-10
5.22384827363e-05
1.48182954355e-10
5.22384911311e-05
1.15776443151e-10
5.22385211801e-05
6.42828681381e-11
5.22385955784e-05
-3.91325855091e-11
5.22387142883e-05
-1.89161826427e-10
5.22389057804e-05
-4.32155283035e-10
5.22392416453e-05
-8.41202267175e-10
5.22397555987e-05
-1.55945529812e-09
5.22405242016e-05
-2.56882517727e-09
5.22416797652e-05
-4.09762090473e-09
5.22434253594e-05
-6.43908915034e-09
5.22460621601e-05
-1.00419243593e-08
5.22500419177e-05
-1.56120011041e-08
5.22560555933e-05
-2.42636958827e-08
5.22651618353e-05
-3.7773453264e-08
5.22789779661e-05
-5.90023179005e-08
5.22999620491e-05
-9.25996693915e-08
5.23318304134e-05
-1.46193687339e-07
5.23799280231e-05
-2.32449402634e-07
5.24511838269e-05
-3.72604812187e-07
5.25524658297e-05
-6.02147450929e-07
5.26843255625e-05
-9.79006809185e-07
5.28245441468e-05
-1.59074653027e-06
5.2891635575e-05
-2.5513221733e-06
5.26731104305e-05
-3.97495832271e-06
-5.77148558204e-06
5.18641350802e-05
5.19834863051e-05
4.18998829306e-06
5.50586635366e-05
9.80990065417e-06
5.76386124989e-05
1.21156455618e-05
5.93259021771e-05
1.20656819825e-05
6.02280139266e-05
1.07325701548e-05
6.05929248303e-05
8.90015424282e-06
6.0648281453e-05
7.03829064114e-06
6.05531866841e-05
5.37797028518e-06
6.04029517977e-05
4.00222016214e-06
6.02479109773e-05
2.91496894326e-06
6.01107851375e-05
2.08393489782e-06
5.99990253119e-05
1.46463846415e-06
5.99125098453e-05
1.01253665194e-06
5.984791767e-05
6.88319092973e-07
5.98010138277e-05
4.59580713187e-07
5.97677289084e-05
3.00735337067e-07
5.97445872963e-05
1.92183386071e-07
5.97288085063e-05
1.19255162127e-07
5.97182601242e-05
7.11785303246e-08
5.97113537101e-05
4.01740388036e-08
5.97069341534e-05
2.07103083932e-08
5.9704200068e-05
8.91704829029e-09
5.97025908653e-05
2.12491896007e-09
5.97016861811e-05
-1.51855479404e-09
5.97012277496e-05
-3.22744880758e-09
5.97010381047e-05
-3.79294529991e-09
5.97010017095e-05
-3.7261807805e-09
5.97010459005e-05
-3.3444859978e-09
5.97011269625e-05
-2.83744550582e-09
5.97012192249e-05
-2.31319109773e-09
5.97013088079e-05
-1.82829534545e-09
5.97013890913e-05
-1.40808515805e-09
5.97014586526e-05
-1.06064256595e-09
5.97015180809e-05
-7.83374983977e-10
5.9701568183e-05
-5.63918959638e-10
5.97016078576e-05
-3.92676042572e-10
5.97016355546e-05
-2.62348728938e-10
5.97016508075e-05
-1.65626581878e-10
5.9701649157e-05
-9.05646004102e-11
5.97016411399e-05
-2.92810277794e-11
5.97016346036e-05
6.66976964155e-12
5.9701625448e-05
3.74245481717e-11
5.97016151719e-05
5.96986657436e-11
5.97016037313e-05
7.74174990457e-11
5.9701590063e-05
9.35391654974e-11
5.97015740007e-05
1.08323125021e-10
5.97015555927e-05
1.22160482137e-10
5.97015347765e-05
1.35266358942e-10
5.97015117625e-05
1.47620595826e-10
5.97014894899e-05
1.58940693246e-10
5.97014679437e-05
1.68501808357e-10
5.97014483809e-05
1.75006729687e-10
5.97014324927e-05
1.76550946413e-10
5.97014219067e-05
1.70602235915e-10
5.97014160626e-05
1.5422878895e-10
5.97014068141e-05
1.25166757009e-10
5.97014105544e-05
6.06322266557e-11
5.97014220492e-05
-5.05920661766e-11
5.97015015373e-05
-2.68663253111e-10
5.97016873823e-05
-6.18064815108e-10
5.97019845187e-05
-1.13842866515e-09
5.97023678862e-05
-1.94289998788e-09
5.97029415887e-05
-3.14256124755e-09
5.97037881486e-05
-4.94419413522e-09
5.97050212662e-05
-7.67221504665e-09
5.97068056678e-05
-1.18263069188e-08
5.97093790861e-05
-1.81853304006e-08
5.97130850484e-05
-2.79694532581e-08
5.97184126197e-05
-4.31006711303e-08
5.97260417856e-05
-6.66310507973e-08
5.97368733593e-05
-1.03430842759e-07
5.97519688008e-05
-1.61288741071e-07
5.97721645144e-05
-2.52644586573e-07
5.97968674208e-05
-3.97307127676e-07
5.98209190095e-05
-6.26198409312e-07
5.98274408664e-05
-9.85527868504e-07
5.97743836554e-05
-1.53768873547e-06
5.9573804877e-05
-2.35074274107e-06
5.9067830735e-05
-3.46898225236e-06
-4.79978923314e-06
5.80961342703e-05
5.14373052116e-05
2.75268290783e-06
5.42658201339e-05
6.98138543558e-06
5.72496425131e-05
9.13182289681e-06
5.97900265828e-05
9.5252976388e-06
6.17201267671e-05
8.80246967915e-06
6.30883014095e-05
7.53197931696e-06
6.4016714652e-05
6.10987710487e-06
6.46292341222e-05
4.76545050942e-06
6.50258007587e-05
3.60565322595e-06
6.52790750143e-05
2.66169438999e-06
6.54389697498e-05
1.92403987272e-06
6.55386862781e-05
1.3649216557e-06
6.55999245298e-05
9.5129812997e-07
6.56367390751e-05
6.51504282553e-07
6.56581899215e-05
4.38129606437e-07
6.56700979118e-05
2.88827100306e-07
6.56761869414e-05
1.860941264e-07
6.56788230627e-05
1.16618823978e-07
6.5679493336e-05
7.05080485503e-08
6.56791169842e-05
4.05501892823e-08
6.56782494628e-05
2.15776410328e-08
6.5677218443e-05
9.94789916402e-09
6.56762091123e-05
3.13410427194e-09
6.56752997693e-05
-6.09336080362e-10
6.56745310334e-05
-2.45881948099e-09
6.56739026502e-05
-3.1646495085e-09
6.56734037444e-05
-3.2273411235e-09
6.56730168444e-05
-2.95763843293e-09
6.56727229658e-05
-2.54359893133e-09
6.56725039427e-05
-2.09418144794e-09
6.56723436614e-05
-1.66801119185e-09
6.56722284414e-05
-1.29286200856e-09
6.56721461444e-05
-9.78346979171e-10
6.56720861478e-05
-7.23379972912e-10
6.56720426839e-05
-5.20444405818e-10
6.56720115251e-05
-3.61494533557e-10
6.56719865536e-05
-2.37335613939e-10
6.56719650973e-05
-1.44104857372e-10
6.56719502498e-05
-7.56397229435e-11
6.56719486238e-05
-2.75789392882e-11
6.56719472079e-05
8.16120395863e-12
6.5671939981e-05
4.474301096e-11
6.56719300463e-05
6.97520553064e-11
6.56719177051e-05
8.9907086983e-11
6.56719038257e-05
1.07593737951e-10
6.56718884187e-05
1.23919288824e-10
6.56718713404e-05
1.39447099649e-10
6.56718525177e-05
1.54313688716e-10
6.56718325159e-05
1.67864489804e-10
6.56718133116e-05
1.78395718852e-10
6.56717937852e-05
1.8828165856e-10
6.56717744779e-05
1.945658839e-10
6.56717565004e-05
1.94771633411e-10
6.56717417071e-05
1.8561685498e-10
6.5671733705e-05
1.62415167342e-10
6.56717398937e-05
1.19120235455e-10
6.56717472171e-05
5.33939480553e-11
6.56717764254e-05
-7.97695599898e-11
6.56718436496e-05
-3.35909073713e-10
6.56719395192e-05
-7.13995314029e-10
6.56720870607e-05
-1.28605520322e-09
6.56722929938e-05
-2.14889212541e-09
6.5672573645e-05
-3.42324361869e-09
6.56729454331e-05
-5.31600211392e-09
6.56734190786e-05
-8.14585556654e-09
6.56739919237e-05
-1.23990967303e-08
6.56746335645e-05
-1.88268452421e-08
6.56752579117e-05
-2.85935736129e-08
6.56756632253e-05
-4.35056503024e-08
6.5675421062e-05
-6.63885034925e-08
6.56736616931e-05
-1.01671099969e-07
6.56686496698e-05
-1.56276239561e-07
6.5656848479e-05
-2.40842746215e-07
6.56311265624e-05
-3.71584589951e-07
6.55773289564e-05
-5.72400100096e-07
6.54682167304e-05
-8.76414583131e-07
6.52546111557e-05
-1.32408237051e-06
6.48564457658e-05
-1.95257675815e-06
6.41612143735e-05
-2.77374948485e-06
-3.71722094672e-06
6.30786463074e-05
5.10850422059e-05
1.66764053612e-06
5.36118441183e-05
4.45458322302e-06
5.66873157595e-05
6.05635096859e-06
5.9689445499e-05
6.52316762472e-06
6.22997258188e-05
6.1921890706e-06
6.44136870987e-05
5.41801775348e-06
6.60471829519e-05
4.47638096066e-06
6.72686142064e-05
3.54401895362e-06
6.81598929701e-05
2.71437416984e-06
6.87977593156e-05
2.02382775462e-06
6.9246743464e-05
1.47505543664e-06
6.95579621006e-05
1.05370273943e-06
6.9770428613e-05
7.38831345107e-07
6.99131715519e-05
5.08761078949e-07
7.00073825843e-05
3.43918317855e-07
7.0068292125e-05
2.27917313259e-07
7.01066941813e-05
1.47691837379e-07
7.01301365484e-05
9.31762368113e-08
7.01438257606e-05
5.6818626316e-08
7.0151301965e-05
3.30737846188e-08
7.01549345588e-05
1.79448608741e-08
7.01562824689e-05
8.59982194917e-09
7.01563544988e-05
3.06192808956e-09
7.01557626087e-05
-1.75699668568e-11
7.01549019008e-05
-1.59821561474e-09
7.01539784657e-05
-2.24130102189e-09
7.01531100156e-05
-2.35895487821e-09
7.01523502062e-05
-2.19787123882e-09
7.01517162403e-05
-1.90966445713e-09
7.01512052647e-05
-1.5832236493e-09
7.01508043464e-05
-1.26709986957e-09
7.01504965277e-05
-9.85039170882e-10
7.01502641677e-05
-7.45977998058e-10
7.01500910941e-05
-5.50304540886e-10
7.01499643204e-05
-3.93664719542e-10
7.01498732067e-05
-2.70356699523e-10
7.0149810659e-05
-1.74741978986e-10
7.01497692185e-05
-1.02604339213e-10
7.01497408108e-05
-4.71711930632e-11
7.01497109683e-05
2.32396204898e-12
7.01496877414e-05
3.14576469557e-11
7.01496749123e-05
5.76725447267e-11
7.01496646174e-05
8.01807673866e-11
7.01496549385e-05
9.97425604689e-11
7.01496451198e-05
1.17585657602e-10
7.01496347755e-05
1.34442528627e-10
7.01496237815e-05
1.50644359525e-10
7.01496121669e-05
1.66155766962e-10
7.01495996788e-05
1.80601501194e-10
7.01495849697e-05
1.93367573139e-10
7.0149569983e-05
2.0352989282e-10
7.01495555031e-05
2.09299427145e-10
7.01495422803e-05
2.08231573455e-10
7.01495309111e-05
1.97197744654e-10
7.01495210245e-05
1.72484511853e-10
7.01495100995e-05
1.30183288309e-10
7.0149500353e-05
6.3231467517e-11
7.01494913068e-05
-7.06898566518e-11
7.0149498908e-05
-3.43535421578e-10
7.01495192895e-05
-7.34445102376e-10
7.01495397941e-05
-1.30663506904e-09
7.01495384235e-05
-2.14757537852e-09
7.01494880848e-05
-3.37294363901e-09
7.01493353136e-05
-5.1632501825e-09
7.01489808813e-05
-7.7914016084e-09
7.01482491908e-05
-1.1667328497e-08
7.01468383867e-05
-1.74158991139e-08
7.01442361796e-05
-2.59911464921e-08
7.01395670235e-05
-3.88361988793e-08
7.01313482762e-05
-5.81694448155e-08
7.01170900409e-05
-8.74125289394e-08
7.00926344888e-05
-1.31820125087e-07
7.0050887526e-05
-1.99095010916e-07
6.99798699304e-05
-3.00566321356e-07
6.98596082151e-05
-4.52137863366e-07
6.96576464572e-05
-6.74451821036e-07
6.93240517152e-05
-9.90486767015e-07
6.87892432425e-05
-1.41776773731e-06
6.79705830412e-05
-1.95508811748e-06
-2.55654318801e-06
6.68099057981e-05
5.08804130405e-05
7.87227321459e-07
5.31704657415e-05
2.16453021154e-06
5.62177490229e-05
3.00906739859e-06
5.94382687557e-05
3.30264761094e-06
6.24449682786e-05
3.18548924819e-06
6.50382514061e-05
2.82473433558e-06
6.71548646687e-05
2.35976739416e-06
6.88135628468e-05
1.88532046555e-06
7.00731685351e-05
1.45476817798e-06
7.10056651885e-05
1.09133080298e-06
7.16812611761e-05
7.9945915623e-07
7.21614202368e-05
5.73543390157e-07
7.2496600881e-05
4.03650421004e-07
7.27264771651e-05
2.78884525645e-07
7.28812758087e-05
1.89119416362e-07
7.29834653256e-05
1.25727548123e-07
7.30494088892e-05
8.1748033909e-08
7.30908107969e-05
5.17740971381e-08
7.31159045607e-05
3.17246422651e-08
7.3130388917e-05
1.85892239957e-08
7.31381434932e-05
1.01900987132e-08
7.31417638063e-05
4.97934004109e-09
7.31429514058e-05
1.87417762632e-09
7.31428049363e-05
1.2876932986e-10
7.31419816437e-05
-7.7502865269e-10
7.3140898695e-05
-1.15843905679e-09
7.31397838033e-05
-1.24413089185e-09
7.31387563699e-05
-1.17048960904e-09
7.31378688497e-05
-1.0221752405e-09
7.31371351538e-05
-8.49542549217e-10
7.31365478979e-05
-6.798504044e-10
7.31360896851e-05
-5.26836222348e-10
7.31357396454e-05
-3.95949304074e-10
7.31354771485e-05
-2.87817030687e-10
7.31352838581e-05
-2.00375557711e-10
7.3135144155e-05
-1.30635581787e-10
7.31350447868e-05
-7.53368056947e-11
7.31349732177e-05
-3.09877555329e-11
7.3134920144e-05
5.95417560019e-12
7.31348904647e-05
3.20613984195e-11
7.31348674403e-05
5.45570532969e-11
7.31348507614e-05
7.44581157156e-11
7.31348385436e-05
9.25320560716e-11
7.3134828975e-05
1.09456580441e-10
7.31348207873e-05
1.25932288826e-10
7.31348131002e-05
1.4230703176e-10
7.31348053061e-05
1.5864598456e-10
7.31347969734e-05
1.74732237109e-10
7.31347878243e-05
1.90015893778e-10
7.31347778055e-05
2.03650610549e-10
7.31347669681e-05
2.14620492815e-10
7.31347553783e-05
2.21134614569e-10
7.31347431432e-05
2.20703557449e-10
7.31347304638e-05
2.10099194511e-10
7.31347178216e-05
1.85313764987e-10
7.31347061794e-05
1.41960244279e-10
7.31346916286e-05
7.78645807718e-11
7.31346674285e-05
-4.64554866196e-11
7.3134624779e-05
-3.00911480884e-10
7.31345572172e-05
-6.66941451645e-10
7.31344412809e-05
-1.19076108776e-09
7.3134233564e-05
-1.93990738225e-09
7.31338658198e-05
-3.00522296512e-09
7.31332229028e-05
-4.52031862505e-09
7.31321115311e-05
-6.67998090589e-09
7.31302093066e-05
-9.76503391572e-09
7.31269888841e-05
-1.41953715981e-08
7.3121594193e-05
-2.05962609458e-08
7.31126104307e-05
-2.9852146853e-08
7.30977309854e-05
-4.32897273008e-08
7.3073247685e-05
-6.29289600978e-08
7.3033257349e-05
-9.1829382193e-08
7.29682380341e-05
-1.3407499895e-07
7.2863160563e-05
-1.95488106119e-07
7.26948403494e-05
-2.83817067866e-07
7.24287483002e-05
-4.08358900795e-07
7.20164766285e-05
-5.78214121397e-07
7.13967560422e-05
-7.9804657543e-07
7.05039287166e-05
-1.06225976575e-06
-1.34583036201e-06
6.92932165675e-05
5.07871724478e-05
5.46915595203e-11
5.29516494176e-05
5.29208755058e-11
5.59606877566e-05
2.8765313442e-11
5.92633209395e-05
1.4146353729e-11
6.24488071803e-05
2.70121629875e-12
6.52735473825e-05
-6.16000793331e-12
6.76333265337e-05
-1.20676569446e-11
6.9518661707e-05
-1.5017010953e-11
7.09734450346e-05
-1.54506087049e-11
7.20647895136e-05
-1.39696259589e-11
7.28642595853e-05
-1.12045325103e-11
7.34378105028e-05
-7.80965438574e-12
7.38414650917e-05
-4.44521243924e-12
7.41203510984e-05
-1.75271252808e-12
7.43094705722e-05
-3.18959340793e-13
7.44351984203e-05
-5.49406340378e-13
7.45169489123e-05
-2.69907724681e-12
7.45687292985e-05
-6.52210088167e-12
7.46004650981e-05
-1.13778805437e-11
7.46190704023e-05
-1.62821014254e-11
7.46292804241e-05
-2.01052334986e-11
7.4634281354e-05
-2.17535336059e-11
7.46361761478e-05
-2.07649628759e-11
7.46363232025e-05
-1.84171763375e-11
7.46355639449e-05
-1.58786111875e-11
7.4634418143e-05
-1.27183936786e-11
7.46331830586e-05
-9.10448496255e-12
7.46320176368e-05
-5.11261822847e-12
7.46309956732e-05
-2.46303587305e-13
7.46301422593e-05
3.8469316817e-12
7.46294538782e-05
8.52347037979e-12
7.46289135289e-05
1.35101319334e-11
7.4628498808e-05
1.87676456354e-11
7.46281866276e-05
2.43616897922e-11
7.46279557852e-05
3.04762148522e-11
7.46277879428e-05
3.72360365248e-11
7.46276679321e-05
4.47174906316e-11
7.46275840864e-05
5.28957287057e-11
7.46275282792e-05
6.17995061198e-11
7.46274893155e-05
7.10767235398e-11
7.46274632615e-05
8.06926452952e-11
7.46274462691e-05
9.15671610966e-11
7.46274353362e-05
1.03602108664e-10
7.46274282229e-05
1.16714722179e-10
7.46274233912e-05
1.30912496879e-10
7.46274197861e-05
1.46090069275e-10
7.46274166643e-05
1.61989975037e-10
7.46274134787e-05
1.78174384223e-10
7.46274097863e-05
1.93975055771e-10
7.46274052237e-05
2.08468826012e-10
7.46273996116e-05
2.20479197014e-10
7.46273927379e-05
2.28257051241e-10
7.46273842242e-05
2.29469914891e-10
7.46273733919e-05
2.21168616023e-10
7.46273590596e-05
1.99835862051e-10
7.46273394842e-05
1.61665627324e-10
7.46273137618e-05
1.03673513769e-10
7.46272690582e-05
-1.71794238251e-12
7.46271804379e-05
-2.12312980632e-10
7.46270440465e-05
-5.30616589348e-10
7.4626820608e-05
-9.6739965605e-10
7.46264492276e-05
-1.56858597868e-09
7.46258333951e-05
-2.38940532703e-09
7.46248161956e-05
-3.50307976397e-09
7.46231423547e-05
-5.00607809668e-09
7.46203944838e-05
-7.01710963165e-09
7.46159068217e-05
-9.70761886124e-09
7.46086205165e-05
-1.33097202016e-08
7.45967961756e-05
-1.80274575063e-08
7.45776310922e-05
-2.4124331968e-08
7.45467109254e-05
-3.20085187543e-08
7.44972987555e-05
-4.24168058249e-08
7.44186491928e-05
-5.54247794785e-08
7.42943549912e-05
-7.11931668971e-08
7.41000215374e-05
-8.94829637285e-08
7.38008058594e-05
-1.09142446678e-07
7.33500041586e-05
-1.27411392004e-07
7.26910762186e-05
-1.39118011849e-07
7.1765891096e-05
-1.37073718292e-07
-1.12778178501e-07
7.05328396687e-05
5.07871714095e-05
-7.87116901243e-07
5.29516485621e-05