/*--------------------------------*- C++ -*----------------------------------*\
| =========                 |                                                 |
| \\      /  F ield         | OpenFOAM: The Open Source CFD Toolbox           |
|  \\    /   O peration     | Version:  2106                                  |
|   \\  /    A nd           | Website:  www.openfoam.com                      |
|    \\/     M anipulation  |                                                 |
\*---------------------------------------------------------------------------*/
FoamFile
{
    version     2.0;
    format      ascii;
    arch        "LSB;label=32;scalar=64";
    class       volVectorField;
    location    "0.285";
    object      U;
}
// * * * * * * * * * * * * * * * * * * * * * * * * * * * * * * * * * * * * * //

dimensions      [0 1 -1 0 0 0 0];

internalField   nonuniform List<vector> 
11200
(
(0.662462403869 0.15056944373 0)
(0.558948673444 0.103243389134 0)
(0.383850737122 0.0513512248073 0)
(0.283747595423 0.0248708558626 0)
(0.232075271471 0.0124170457936 0)
(0.201908589479 0.00662281732467 0)
(0.183197937113 0.00380291475364 0)
(0.171276493766 0.00231587028853 0)
(0.163510312156 0.00146450670569 0)
(0.158388775808 0.000944892475431 0)
(0.155006637034 0.000615176854224 0)
(0.152786681554 0.000402233671817 0)
(0.151346530657 0.000264231996183 0)
(0.150428292654 0.000175249862962 0)
(0.149856687268 0.000118360341459 0)
(0.149512484726 8.21595821665e-05 0)
(0.149314922877 5.88653588552e-05 0)
(0.149209559303 4.33147712015e-05 0)
(0.149159696985 3.2933113784e-05 0)
(0.149142453403 2.81855792647e-05 0)
(0.149144604891 2.76837821648e-05 0)
(0.149156874717 2.98895949785e-05 0)
(0.14917248938 3.3050032504e-05 0)
(0.14918802924 3.5965648755e-05 0)
(0.149202229989 3.86011725166e-05 0)
(0.149214491824 4.10402620051e-05 0)
(0.149224647115 4.33175544524e-05 0)
(0.149232802716 4.54641970653e-05 0)
(0.14923919527 4.75194420958e-05 0)
(0.149244106754 4.95303312008e-05 0)
(0.149247822201 5.15589041616e-05 0)
(0.149250609058 5.36960895382e-05 0)
(0.149252664371 5.60246185991e-05 0)
(0.149254158248 5.84059896769e-05 0)
(0.149255223221 6.07670289276e-05 0)
(0.149255945775 6.30881476235e-05 0)
(0.149256422663 6.53795772552e-05 0)
(0.149256737458 6.765424503e-05 0)
(0.149256943897 6.99237884201e-05 0)
(0.149257071262 7.2194372361e-05 0)
(0.149257140573 7.44670302067e-05 0)
(0.149257169101 7.67427101608e-05 0)
(0.149257169025 7.90210837923e-05 0)
(0.149257149236 8.13010139917e-05 0)
(0.149257116149 8.35807850093e-05 0)
(0.149257074411 8.58580591926e-05 0)
(0.149257027926 8.81300440823e-05 0)
(0.149256980659 9.03936920629e-05 0)
(0.149256937066 9.26459231588e-05 0)
(0.149256902303 9.48837596252e-05 0)
(0.149256883215 9.71040821019e-05 0)
(0.149256889383 9.93039541013e-05 0)
(0.149256933888 0.000101480370378 0)
(0.149257034884 0.000103629995333 0)
(0.149257217928 0.000105748555231 0)
(0.149257519077 0.000107830385541 0)
(0.149257988881 0.000109868444636 0)
(0.149258701953 0.000111852823506 0)
(0.149259767847 0.000113770938514 0)
(0.14926134475 0.000115598146535 0)
(0.149263678239 0.000117278906821 0)
(0.149267176322 0.000118728649935 0)
(0.149272309385 0.000119986875639 0)
(0.149279723512 0.000121245515955 0)
(0.149290450484 0.000122965813089 0)
(0.149306010778 0.000125336586909 0)
(0.149328789565 0.000128117403815 0)
(0.149362481917 0.000131080472959 0)
(0.14941268102 0.000134009997774 0)
(0.149487618549 0.000136791988751 0)
(0.149599234349 0.000140701218095 0)
(0.14977035971 0.00015155852875 0)
(0.150038768936 0.000172292808565 0)
(0.150467636096 0.000202558852725 0)
(0.151192783428 0.000232500803018 0)
(0.152491916706 0.000191694182598 0)
(0.155021314627 -0.00021686421467 0)
(0.16237566603 -0.00211078679598 0)
(0.187708500178 -0.0107918855047 0)
(0.20438289822 -0.049677071518 0)
(0.96540825399 0.289214708132 0)
(0.961962857512 0.252656040723 0)
(0.823574386823 0.159021441961 0)
(0.698139360252 0.0959957315897 0)
(0.610225451649 0.0582481144313 0)
(0.548971475365 0.0362148533613 0)
(0.506588867753 0.023161285095 0)
(0.477567242276 0.0151375150897 0)
(0.457745458941 0.0100177547748 0)
(0.444228421576 0.0066581406413 0)
(0.435053253015 0.00441555558548 0)
(0.42887306619 0.00290686496719 0)
(0.424754143547 0.00189105732226 0)
(0.422046587355 0.00121004404684 0)
(0.420297744196 0.00075716197124 0)
(0.41919312936 0.000459254303802 0)
(0.418515518726 0.000265853064169 0)
(0.418116366556 0.000142397590167 0)
(0.417895758573 6.61071610187e-05 0)
(0.417786703203 2.30905778898e-05 0)
(0.417745284032 1.40616930043e-06 0)
(0.417742002715 -1.01644426374e-05 0)
(0.417756597008 -1.37157628651e-05 0)
(0.417778552769 -1.32691477363e-05 0)
(0.417802844764 -1.08368779779e-05 0)
(0.417826213721 -7.49378879955e-06 0)
(0.417846966307 -3.87743510188e-06 0)
(0.41786450379 -3.57911140226e-07 0)
(0.41787883 2.86329382597e-06 0)
(0.417890260311 5.68228642583e-06 0)
(0.417899266437 8.03481102653e-06 0)
(0.4179063418 9.83655516882e-06 0)
(0.417911688389 1.10053075539e-05 0)
(0.417915539993 1.18577834197e-05 0)
(0.417918274327 1.26795871747e-05 0)
(0.417920166342 1.34364378492e-05 0)
(0.417921458258 1.41103596168e-05 0)
(0.417922341444 1.47255614674e-05 0)
(0.417922942273 1.53111018034e-05 0)
(0.4179233324 1.58806180182e-05 0)
(0.417923564593 1.64344125077e-05 0)
(0.417923682284 1.69774689267e-05 0)
(0.417923716165 1.75134213263e-05 0)
(0.417923688834 1.80456425835e-05 0)
(0.41792361662 1.85772776237e-05 0)
(0.417923511555 1.91106571527e-05 0)
(0.417923383919 1.96477353292e-05 0)
(0.41792324414 2.0190457681e-05 0)
(0.41792310393 2.07410349588e-05 0)
(0.417922976764 2.13014614197e-05 0)
(0.417922880455 2.18717688205e-05 0)
(0.417922839745 2.24520410213e-05 0)
(0.417922888239 2.30422355988e-05 0)
(0.417923072138 2.36420063437e-05 0)
(0.417923456164 2.42505208846e-05 0)
(0.417924132549 2.4866741428e-05 0)
(0.417925231748 2.54888084602e-05 0)
(0.417926946127 2.6104583343e-05 0)
(0.417929553266 2.66966850147e-05 0)
(0.417933442233 2.72345937384e-05 0)
(0.417939212084 2.76702579908e-05 0)
(0.417947959874 2.79505814038e-05 0)
(0.41796117612 2.82356035622e-05 0)
(0.41798099602 2.77903545778e-05 0)
(0.418010188575 2.52014787231e-05 0)
(0.418052359558 1.93871376471e-05 0)
(0.418113689014 9.54173270137e-06 0)
(0.418204294591 -5.86607207159e-06 0)
(0.418339778545 -2.93597046337e-05 0)
(0.418545036445 -6.46208328035e-05 0)
(0.41886196787 -0.000115845509965 0)
(0.41936018743 -0.000188010266247 0)
(0.420153191652 -0.00030780956244 0)
(0.421444689752 -0.000532837982871 0)
(0.423626447272 -0.000999965005091 0)
(0.427417408296 -0.00209101304393 0)
(0.4342402696 -0.004857905271 0)
(0.448271242541 -0.0122582465789 0)
(0.474660752363 -0.0342539772058 0)
(0.478204092456 -0.098808391002 0)
(1.02222096481 0.238416187074 0)
(1.08213752749 0.295926652258 0)
(1.03447722171 0.239503065569 0)
(0.954615401347 0.174290163598 0)
(0.879992044544 0.121345467443 0)
(0.81861442089 0.0830993830735 0)
(0.771410832003 0.056731665994 0)
(0.736634368013 0.0387409672472 0)
(0.711624405832 0.0264327855437 0)
(0.69391659008 0.0179731030518 0)
(0.681541376432 0.0121424461289 0)
(0.673000080039 0.00812490618539 0)
(0.667180611004 0.00536631886915 0)
(0.663271637023 0.00348444246146 0)
(0.660688461737 0.00221255918966 0)
(0.659014133259 0.00136337956355 0)
(0.657954448053 0.000805241641272 0)
(0.657304150743 0.000445914627437 0)
(0.656921727926 0.000221066754549 0)
(0.656710158097 8.55791794991e-05 0)
(0.656603289219 8.35601584053e-06 0)
(0.656561735782 -3.3721474041e-05 0)
(0.656557830902 -5.68557683485e-05 0)
(0.656571302087 -6.68747044203e-05 0)
(0.656592827412 -6.84820138389e-05 0)
(0.656616643337 -6.55605214737e-05 0)
(0.656639442569 -6.054953638e-05 0)
(0.656659618225 -5.48597551091e-05 0)
(0.656676585029 -4.92756697716e-05 0)
(0.656690320856 -4.42042617821e-05 0)
(0.656701072173 -3.98404058001e-05 0)
(0.65670922309 -3.6302449271e-05 0)
(0.656715469491 -3.36963713314e-05 0)
(0.656720501552 -3.1857729091e-05 0)
(0.656724362763 -3.08111234282e-05 0)
(0.656727068316 -3.03041368219e-05 0)
(0.656728929809 -3.0248632523e-05 0)
(0.656730226868 -3.05595405e-05 0)
(0.656731127082 -3.10869649972e-05 0)
(0.656731720365 -3.1748477684e-05 0)
(0.656732081028 -3.25146205712e-05 0)
(0.656732274437 -3.33504279083e-05 0)
(0.656732345828 -3.42314094993e-05 0)
(0.656732329258 -3.51382939191e-05 0)
(0.656732249366 -3.6055700331e-05 0)
(0.656732124518 -3.69729173004e-05 0)
(0.656731970644 -3.7882342055e-05 0)
(0.656731803675 -3.87783762881e-05 0)
(0.656731640687 -3.96561836391e-05 0)
(0.656731499672 -4.05103486539e-05 0)
(0.656731404949 -4.13373658355e-05 0)
(0.656731392016 -4.21332697949e-05 0)
(0.656731509599 -4.289626806e-05 0)
(0.656731825552 -4.36293093165e-05 0)
(0.656732436088 -4.43454586563e-05 0)
(0.656733478012 -4.50756314462e-05 0)
(0.656735138155 -4.5873705582e-05 0)
(0.656737691782 -4.68350673983e-05 0)
(0.656741547377 -4.8085471316e-05 0)
(0.656747302579 -4.98411614222e-05 0)
(0.656755883682 -5.26065525806e-05 0)
(0.656768937884 -5.74049850481e-05 0)
(0.656787797081 -6.50234176081e-05 0)
(0.65681389909 -7.63362272309e-05 0)
(0.656851066741 -9.30303819708e-05 0)
(0.656906007573 -0.000117509171137 0)
(0.656988107955 -0.000152973365196 0)
(0.657111158692 -0.000204709722862 0)
(0.657296975824 -0.000281240443415 0)
(0.657580956832 -0.000396445972395 0)
(0.658021242482 -0.000574686158286 0)
(0.658707055376 -0.000863244295976 0)
(0.659785499508 -0.00135223226408 0)
(0.661514212889 -0.00221483619737 0)
(0.664335554796 -0.0038137392458 0)
(0.668945645493 -0.00694805615941 0)
(0.676371046891 -0.0133571782934 0)
(0.688620794967 -0.0268539736793 0)
(0.705255813621 -0.0563435125971 0)
(0.700524312127 -0.113139438117 0)
(1.02251475395 0.170807152024 0)
(1.1013897547 0.276496477975 0)
(1.11752425578 0.26666479826 0)
(1.0921465968 0.219901697971 0)
(1.05187814344 0.168168846551 0)
(1.01020820721 0.123567395462 0)
(0.973494668269 0.0888375201835 0)
(0.943864527511 0.0630063699807 0)
(0.921142764824 0.0442232023291 0)
(0.904284031651 0.0307423907951 0)
(0.8920748215 0.0211562919931 0)
(0.883404457365 0.0143954662729 0)
(0.877352611741 0.00966794589341 0)
(0.87319764359 0.00639383487624 0)
(0.870392861878 0.00415116256379 0)
(0.86853396827 0.00263448866121 0)
(0.867327566568 0.00162401510934 0)
(0.866564158628 0.000962673681216 0)
(0.866096396533 0.000539120072571 0)
(0.865822149725 0.00027515117607 0)
(0.865671301488 0.000117066057749 0)
(0.865595046711 2.87904650946e-05 0)
(0.865563984876 -1.93264112311e-05 0)
(0.865561173365 -4.12625326824e-05 0)
(0.865572514321 -4.76664487565e-05 0)
(0.865589518271 -4.5525670893e-05 0)
(0.865607826185 -3.91560281167e-05 0)
(0.86562516405 -3.11450426586e-05 0)
(0.865640447994 -2.29638370831e-05 0)
(0.86565331096 -1.53800201184e-05 0)
(0.86566378451 -8.72230625164e-06 0)
(0.865672072108 -3.04341571472e-06 0)
(0.865678426071 1.7352066365e-06 0)
(0.865683054124 5.46650728986e-06 0)
(0.865686373855 8.03376596166e-06 0)
(0.865688772379 9.79079785002e-06 0)
(0.865690404581 1.11441585826e-05 0)
(0.865691566864 1.22889236702e-05 0)
(0.865692435208 1.32578056111e-05 0)
(0.865693028054 1.41444717852e-05 0)
(0.865693393532 1.49399407715e-05 0)
(0.865693596168 1.56667772329e-05 0)
(0.865693674883 1.63405192567e-05 0)
(0.865693661181 1.69776534226e-05 0)
(0.865693577288 1.75928294935e-05 0)
(0.865693439285 1.81962495261e-05 0)
(0.865693262115 1.87956018856e-05 0)
(0.865693062332 1.93975931788e-05 0)
(0.865692860444 2.00108013163e-05 0)
(0.865692679232 2.06426578811e-05 0)
(0.865692548849 2.1279090498e-05 0)
(0.865692510837 2.19076608259e-05 0)
(0.865692618625 2.25119517754e-05 0)
(0.86569294216 2.30659530456e-05 0)
(0.865693574339 2.35321930553e-05 0)
(0.865694647199 2.38718877847e-05 0)
(0.865696343037 2.40537311822e-05 0)
(0.865698949473 2.39569365312e-05 0)
(0.865702873341 2.34306688073e-05 0)
(0.865708535851 2.2068431923e-05 0)
(0.865716379505 1.92946635224e-05 0)
(0.865728032691 1.44328814638e-05 0)
(0.865746096267 5.64625371728e-06 0)
(0.865773526416 -8.67684670221e-06 0)
(0.865814199377 -3.05322937038e-05 0)
(0.865874028661 -6.38673326262e-05 0)
(0.865962346899 -0.000115557359156 0)
(0.866093662209 -0.000196365689761 0)
(0.866290521023 -0.00032355583021 0)
(0.866587741483 -0.000525610822256 0)
(0.867038931888 -0.000851493585192 0)
(0.867729173426 -0.00138816971817 0)
(0.868794851567 -0.00228446865184 0)
(0.870449294548 -0.00381508914237 0)
(0.873011528592 -0.00650450589682 0)
(0.876880695058 -0.0113625968217 0)
(0.882379705019 -0.0202594105944 0)
(0.889692327216 -0.0364676380648 0)
(0.89637401866 -0.0655231631852 0)
(0.886553332398 -0.11010601918 0)
(1.01287875022 0.118961023005 0)
(1.08820670429 0.231806936458 0)
(1.13741366383 0.253106764135 0)
(1.15409085583 0.228992753188 0)
(1.1499420927 0.18836835862 0)
(1.13538463335 0.146579843728 0)
(1.11758892121 0.110150965275 0)
(1.10059496944 0.0808162214297 0)
(1.08612453284 0.0582265754273 0)
(1.07459088041 0.0413189837233 0)
(1.06579141693 0.0289160186613 0)
(1.05928793363 0.0199600982268 0)
(1.05459970309 0.0135815582474 0)
(1.05129069977 0.00909744129758 0)
(1.04899977693 0.0059861521331 0)
(1.04744332885 0.00385696466643 0)
(1.04640645062 0.00242159626913 0)
(1.04573053061 0.00147014857862 0)
(1.04530097058 0.000851700532041 0)
(1.04503646882 0.000459015058802 0)
(1.04488010174 0.000216755720856 0)
(1.04479248126 7.30168687596e-05 0)
(1.04474861239 -5.50467503129e-06 0)
(1.04473170985 -4.40086424273e-05 0)
(1.04472945653 -5.93855099176e-05 0)
(1.04473493843 -6.17189266026e-05 0)
(1.04474388471 -5.72451596072e-05 0)
(1.0447537674 -4.98031270704e-05 0)
(1.04476320684 -4.16439230197e-05 0)
(1.04477153288 -3.39884582025e-05 0)
(1.04477849507 -2.74230116272e-05 0)
(1.04478408075 -2.21510354925e-05 0)
(1.04478843594 -1.81275756612e-05 0)
(1.04479177156 -1.51387730945e-05 0)
(1.04479434218 -1.28075982602e-05 0)
(1.04479644121 -1.10114122993e-05 0)
(1.0447981803 -9.52275739184e-06 0)
(1.04479950512 -8.23325537851e-06 0)
(1.04480048574 -7.21417458024e-06 0)
(1.0448011731 -6.54514591954e-06 0)
(1.04480158882 -6.16544246378e-06 0)
(1.04480181995 -5.95663890932e-06 0)
(1.0448019122 -5.8681677635e-06 0)
(1.04480190407 -5.85033276439e-06 0)
(1.04480182029 -5.86294841532e-06 0)
(1.04480167849 -5.8862821256e-06 0)
(1.04480149641 -5.91077474695e-06 0)
(1.04480129553 -5.9326115241e-06 0)
(1.04480109909 -5.95647054638e-06 0)
(1.04480091323 -5.991732151e-06 0)
(1.04480075515 -6.02238873869e-06 0)
(1.04480066976 -6.04681807102e-06 0)
(1.04480071099 -6.0714726731e-06 0)
(1.04480095245 -6.11106152518e-06 0)
(1.04480151242 -6.20211873274e-06 0)
(1.04480257972 -6.45168579488e-06 0)
(1.04480434052 -7.12579399897e-06 0)
(1.04480707292 -8.5019648788e-06 0)
(1.04481109518 -1.1067622506e-05 0)
(1.04481687361 -1.4889199675e-05 0)
(1.04482543103 -1.98359332311e-05 0)
(1.04483791711 -2.60427782686e-05 0)
(1.04485559902 -3.58096466851e-05 0)
(1.04488078561 -5.21142415668e-05 0)
(1.04491694514 -7.91783961527e-05 0)
(1.04496922379 -0.000123250127297 0)
(1.04504522052 -0.000194101394709 0)
(1.04515627807 -0.000307312919479 0)
(1.04531953593 -0.000488054876003 0)
(1.04556085038 -0.000777363061058 0)
(1.04591889804 -0.00124258135209 0)
(1.0464515371 -0.00199539203423 0)
(1.0472428963 -0.00322641680797 0)
(1.04840595912 -0.00526659020251 0)
(1.05006811271 -0.00869304678902 0)
(1.0522861509 -0.0145000695812 0)
(1.0548162785 -0.0242957062671 0)
(1.05686910576 -0.0403917832749 0)
(1.05573875256 -0.0656309697834 0)
(1.04212630485 -0.0995216038499 0)
(1.00447483373 0.0814039972041 0)
(1.06917236914 0.18128853861 0)
(1.13080567867 0.216950418451 0)
(1.17374999167 0.210789155279 0)
(1.19865263559 0.183690076604 0)
(1.2101998595 0.149751682936 0)
(1.21350253249 0.116779143453 0)
(1.21251721058 0.0882206769039 0)
(1.20973094798 0.065048149564 0)
(1.20651115599 0.0470209071592 0)
(1.20351908766 0.0334068064772 0)
(1.20101140139 0.0233557302926 0)
(1.19903439579 0.0160720115176 0)
(1.19753871915 0.0108795114371 0)
(1.19644124942 0.0072341858762 0)
(1.19565551551 0.00471351644522 0)
(1.19510481467 0.00299762723637 0)
(1.19472639681 0.0018491592543 0)
(1.19447141108 0.00109495911475 0)
(1.19430309612 0.000610610335882 0)
(1.19419445229 0.000307985822605 0)
(1.19412616328 0.000125768091658 0)
(1.19408510937 2.22230808938e-05 0)
(1.1940618467 -3.2451668968e-05 0)
(1.19404954279 -5.72700134228e-05 0)
(1.19404404077 -6.45954787149e-05 0)
(1.19404253987 -6.23734111036e-05 0)
(1.1940432216 -5.55186583655e-05 0)
(1.19404497032 -4.69415926644e-05 0)
(1.19404712783 -3.82556450427e-05 0)
(1.19404932168 -3.0261850611e-05 0)
(1.19405135973 -2.3265162655e-05 0)
(1.19405317285 -1.72892116916e-05 0)
(1.19405475527 -1.22605443126e-05 0)
(1.19405612309 -8.07272097623e-06 0)
(1.19405729556 -4.67153804701e-06 0)
(1.1940582453 -2.0605926626e-06 0)
(1.19405891925 -1.71200832596e-07 0)
(1.19405927687 1.14638621999e-06 0)
(1.19405939373 2.00263306317e-06 0)
(1.19405945107 2.68127310537e-06 0)
(1.1940594854 3.28429012613e-06 0)
(1.1940594709 3.81164850726e-06 0)
(1.19405942424 4.2722422973e-06 0)
(1.19405934071 4.67793577568e-06 0)
(1.19405921107 5.04548471342e-06 0)
(1.19405903784 5.38676852061e-06 0)
(1.19405882744 5.70455894448e-06 0)
(1.1940585918 5.98920937715e-06 0)
(1.19405837293 6.22849407845e-06 0)
(1.19405821465 6.44547993877e-06 0)
(1.19405814682 6.63278192845e-06 0)
(1.19405821873 6.76386147651e-06 0)
(1.19405848928 6.79793741566e-06 0)
(1.19405899656 6.67614853301e-06 0)
(1.19405971505 6.3098898418e-06 0)
(1.19406072537 5.5398098687e-06 0)
(1.19406218643 4.0015757325e-06 0)
(1.19406474785 1.26078488493e-06 0)
(1.19406944594 -2.96130575821e-06 0)
(1.19407684495 -9.43874445311e-06 0)
(1.19408686796 -1.95649272691e-05 0)
(1.19410026242 -3.53461205029e-05 0)
(1.19411901768 -5.96969481239e-05 0)
(1.19414526066 -9.71993880482e-05 0)
(1.19418180814 -0.000155168855623 0)
(1.19423264582 -0.000245253161504 0)
(1.19430340117 -0.000385934512702 0)
(1.19440195001 -0.000606678884595 0)
(1.19453905786 -0.000954838899131 0)
(1.19472876136 -0.00150696486034 0)
(1.19498782555 -0.00238739094669 0)
(1.19533105225 -0.00379945001032 0)
(1.19575568849 -0.0060762719515 0)
(1.19620139364 -0.00975705333524 0)
(1.19644841343 -0.0156862210225 0)
(1.19590983601 -0.0250757334691 0)
(1.19343083199 -0.0393830283154 0)
(1.18667544972 -0.059853897103 0)
(1.17012297039 -0.0851821524111 0)
(0.998962324699 0.0544316250738 0)
(1.05310956413 0.133401607474 0)
(1.11628267361 0.170777558104 0)
(1.17301270684 0.175143871915 0)
(1.21791244573 0.159583606186 0)
(1.25049855794 0.134951019855 0)
(1.27288488595 0.108411656401 0)
(1.28776719096 0.0838849711685 0)
(1.29745264462 0.0630565714344 0)
(1.30366071008 0.0462999202342 0)
(1.30759229828 0.0333205135186 0)
(1.31005365144 0.0235495226368 0)
(1.31157357093 0.0163599063545 0)
(1.31249486941 0.0111713137214 0)
(1.31303855835 0.00749150526172 0)
(1.31334664608 0.00492448440563 0)
(1.31351005635 0.00316295362154 0)
(1.31358668287 0.0019747500943 0)
(1.31361305602 0.0011881949354 0)
(1.31361190361 0.000678627188257 0)
(1.31359706343 0.00035700633357 0)
(1.31357674017 0.000160752151107 0)
(1.3135557442 4.64676413273e-05 0)
(1.31353644762 -1.5870489695e-05 0)
(1.31351978903 -4.60586245427e-05 0)
(1.31350610018 -5.70682805977e-05 0)
(1.31349519614 -5.73226825744e-05 0)
(1.31348673975 -5.20839098039e-05 0)
(1.31348034276 -4.45212718711e-05 0)
(1.31347561999 -3.64592461952e-05 0)
(1.31347222034 -2.88708918449e-05 0)
(1.31346984065 -2.22096895115e-05 0)
(1.31346822125 -1.66270902119e-05 0)
(1.3134671338 -1.21306291074e-05 0)
(1.31346641282 -8.65453468879e-06 0)
(1.31346596104 -6.09714362806e-06 0)
(1.31346567738 -4.32111547748e-06 0)
(1.31346547257 -3.11899829523e-06 0)
(1.31346534396 -2.26140642149e-06 0)
(1.31346537721 -1.54413197236e-06 0)
(1.31346553457 -9.6802324733e-07 0)
(1.31346563811 -5.54658346497e-07 0)
(1.31346563705 -1.94596744896e-07 0)
(1.31346556344 1.4161475603e-07 0)
(1.31346543871 4.52080141673e-07 0)
(1.31346527506 7.45378168625e-07 0)
(1.31346507584 1.03341383925e-06 0)
(1.31346484361 1.32709322032e-06 0)
(1.31346458931 1.63769958345e-06 0)
(1.31346434639 1.96526171676e-06 0)
(1.31346413642 2.26044796134e-06 0)
(1.31346396698 2.48567683507e-06 0)
(1.31346386868 2.59681185372e-06 0)
(1.31346389395 2.52986314985e-06 0)
(1.31346412933 2.19807861089e-06 0)
(1.31346469331 1.51092594361e-06 0)
(1.31346556704 4.1921274285e-07 0)
(1.31346682251 -1.26704481534e-06 0)
(1.31346888395 -3.75333578236e-06 0)
(1.3134719827 -7.76711482693e-06 0)
(1.31347631114 -1.45998722122e-05 0)
(1.31348210282 -2.58320780893e-05 0)
(1.31348962964 -4.30517685392e-05 0)
(1.31349937607 -6.94280393266e-05 0)
(1.31351165838 -0.00010998844167 0)
(1.31352655473 -0.000172477463028 0)
(1.31354368012 -0.000268979039152 0)
(1.31356171926 -0.00041844723069 0)
(1.31357747142 -0.000650700234207 0)
(1.31358401367 -0.00101297338621 0)
(1.31356728202 -0.00158030274996 0)
(1.31349982684 -0.00247176009086 0)
(1.31332738632 -0.00387466687892 0)
(1.31294234318 -0.00608153499819 0)
(1.31213463786 -0.00953710968765 0)
(1.31049881308 -0.0148833689601 0)
(1.30728131194 -0.0229493149885 0)
(1.30127210042 -0.0345765239679 0)
(1.2906025723 -0.0502042136555 0)
(1.27179896266 -0.0686082547037 0)
(0.995736073273 0.0346338596733 0)
(1.04179514027 0.090568920998 0)
(1.10222838064 0.12154956485 0)
(1.16491410724 0.129605834025 0)
(1.22202565129 0.122009268423 0)
(1.26951890515 0.106019938336 0)
(1.30680221934 0.0870975558809 0)
(1.33499533156 0.0686366808275 0)
(1.35574474915 0.0523698386128 0)
(1.37069613884 0.0389256173243 0)
(1.38128272311 0.0282980725577 0)
(1.38866264128 0.0201712761597 0)
(1.3937302938 0.0141175092473 0)
(1.39715656401 0.00970533473519 0)
(1.39943430168 0.00655059389183 0)
(1.40091961973 0.00433445322247 0)
(1.40186616235 0.00280414344037 0)
(1.40245217942 0.00176574158597 0)
(1.40280127383 0.00107419353553 0)
(1.40299796778 0.000623233390282 0)
(1.40309918654 0.000336407631888 0)
(1.40314263788 0.000159621745113 0)
(1.40315289693 5.51631259415e-05 0)
(1.40314540704 -2.99880320953e-06 0)
(1.40312964723 -3.21228154061e-05 0)
(1.40311124539 -4.3889924737e-05 0)
(1.40309320854 -4.5759760379e-05 0)
(1.40307706123 -4.24174531233e-05 0)
(1.40306340492 -3.67264547485e-05 0)
(1.40305231328 -3.03635653671e-05 0)
(1.40304358452 -2.42434263826e-05 0)
(1.40303689315 -1.88131672856e-05 0)
(1.40303187782 -1.42412492606e-05 0)
(1.40302818847 -1.05297938626e-05 0)
(1.40302552716 -7.57811303282e-06 0)
(1.40302366182 -5.26134701411e-06 0)
(1.40302241606 -3.4565517022e-06 0)
(1.40302163926 -2.02008153162e-06 0)
(1.4030211658 -8.47402062463e-07 0)
(1.40302080064 8.47125511846e-08 0)
(1.40302047628 7.94128222552e-07 0)
(1.40302027515 1.2839797062e-06 0)
(1.40302018446 1.65626357848e-06 0)
(1.40302011188 1.97648721e-06 0)
(1.40302002278 2.28187689203e-06 0)
(1.40301991008 2.5904606208e-06 0)
(1.40301977241 2.91165258547e-06 0)
(1.40301961198 3.25025651337e-06 0)
(1.40301942973 3.60731016405e-06 0)
(1.4030192183 3.97236858656e-06 0)
(1.40301898968 4.30419535938e-06 0)
(1.40301877759 4.57146977245e-06 0)
(1.40301861007 4.73600318019e-06 0)
(1.40301851236 4.7403839723e-06 0)
(1.40301850235 4.49656590068e-06 0)
(1.40301858459 3.86210191272e-06 0)
(1.40301875621 2.63269090027e-06 0)
(1.40301904075 6.87667884165e-07 0)
(1.40301965 -2.35877656064e-06 0)
(1.40302073855 -7.3103658072e-06 0)
(1.4030221933 -1.49559749018e-05 0)
(1.40302368227 -2.66134658091e-05 0)
(1.40302472215 -4.41305295508e-05 0)
(1.40302456584 -7.04872348201e-05 0)
(1.40302172068 -0.000110269577473 0)
(1.40301344067 -0.000170502901419 0)
(1.40299491529 -0.000262063782103 0)
(1.40295795465 -0.000401816266915 0)
(1.40288860052 -0.0006158145024 0)
(1.40276310357 -0.00094468083979 0)
(1.40254141728 -0.00145178264636 0)
(1.40215715857 -0.00223554584784 0)
(1.40149868197 -0.00344508704583 0)
(1.40037751094 -0.00530427958693 0)
(1.39848016552 -0.00813617292244 0)
(1.39529317682 -0.012375972269 0)
(1.39000292603 -0.0185352935823 0)
(1.38146037615 -0.0270528810863 0)
(1.36816801992 -0.0380119557529 0)
(1.34773137309 -0.0505221196383 0)
(0.994011530483 0.0192358059111 0)
(1.03484763224 0.0523338398565 0)
(1.09199261986 0.0723631269358 0)
(1.15662418959 0.0791292315375 0)
(1.22032115012 0.0761045459581 0)
(1.27701943646 0.0673339711064 0)
(1.32424416981 0.0561509031801 0)
(1.36181571363 0.0447990106337 0)
(1.3906852823 0.0345303772078 0)
(1.41226072096 0.0258814320181 0)
(1.42801818873 0.0189465234737 0)
(1.43929880371 0.0135849814664 0)
(1.44722803273 0.00955653352983 0)
(1.45270408434 0.00660011453379 0)
(1.45641890552 0.00447418925465 0)
(1.4588913878 0.00297351241319 0)
(1.46050224957 0.00193276763313 0)
(1.46152564379 0.00122369277844 0)
(1.46215565722 0.000749549575466 0)
(1.46252747995 0.000439016837999 0)
(1.46273375535 0.000240520371736 0)
(1.46283689672 0.000117411405171 0)
(1.46287819814 4.40492024257e-05 0)
(1.46288443638 2.69099719457e-06 0)
(1.46287231149 -1.84439053178e-05 0)
(1.46285196009 -2.74374990785e-05 0)
(1.4628294092 -2.94370988424e-05 0)
(1.46280787164 -2.76868427087e-05 0)
(1.46278887515 -2.4184623029e-05 0)
(1.46277296409 -2.01116623804e-05 0)
(1.46276012965 -1.611663957e-05 0)
(1.46275007738 -1.25223161345e-05 0)
(1.46274239651 -9.45532542732e-06 0)
(1.46273665475 -6.92654786179e-06 0)
(1.46273245346 -4.88216234596e-06 0)
(1.46272945044 -3.25276813615e-06 0)
(1.46272735749 -1.97526603907e-06 0)
(1.46272591757 -1.00860850008e-06 0)
(1.46272491897 -3.07868516758e-07 0)
(1.46272429701 2.14611156829e-07 0)
(1.46272393849 6.9679525025e-07 0)
(1.46272369437 1.17384508038e-06 0)
(1.46272353225 1.59970235546e-06 0)
(1.46272341249 1.98113458962e-06 0)
(1.46272330554 2.33916174774e-06 0)
(1.46272319239 2.68711581142e-06 0)
(1.46272305974 3.03063397693e-06 0)
(1.46272289918 3.36792749625e-06 0)
(1.46272270618 3.68964677838e-06 0)
(1.46272247801 3.98360058338e-06 0)
(1.46272221778 4.24192890556e-06 0)
(1.4627219333 4.4331068957e-06 0)
(1.46272163161 4.5064195766e-06 0)
(1.46272132203 4.39209003248e-06 0)
(1.46272101906 3.99920058528e-06 0)
(1.46272074319 3.21683952957e-06 0)
(1.46272048061 1.92386698646e-06 0)
(1.4627201329 1.64804619069e-08 0)
(1.46271954057 -2.77606746932e-06 0)
(1.46271857552 -7.28926832681e-06 0)
(1.46271697853 -1.43130203212e-05 0)
(1.46271407019 -2.4942885401e-05 0)
(1.46270872632 -4.07196652435e-05 0)
(1.46269913547 -6.40202988883e-05 0)
(1.46268223239 -9.84411750507e-05 0)
(1.4626528664 -0.000149365997245 0)
(1.46260252551 -0.000224984434926 0)
(1.46251744949 -0.00033774609196 0)
(1.46237514284 -0.000506241982388 0)
(1.46213870453 -0.000758901133393 0)
(1.4617481622 -0.00113954365435 0)
(1.46110887057 -0.00171573722681 0)
(1.46006955128 -0.00258325689247 0)
(1.4583890184 -0.00388176492421 0)
(1.45569304814 -0.00580380204447 0)
(1.45141576192 -0.00859273803306 0)
(1.4447360141 -0.0125091332441 0)
(1.43458354384 -0.0177340348809 0)
(1.41969706257 -0.0242165395333 0)
(1.39822789385 -0.0314117034959 0)
(0.993269666453 0.00617014971637 0)
(1.03158099622 0.017102045169 0)
(1.08672181085 0.023990647882 0)
(1.15174553404 0.0265606652015 0)
(1.2182353492 0.0258180584169 0)
(1.27925772454 0.023048885856 0)
(1.33140133952 0.0193656312657 0)
(1.37377596381 0.0155468577909 0)
(1.40691050712 0.0120449300652 0)
(1.43203310402 0.00906639954765 0)
(1.45060211497 0.00666059450698 0)
(1.46402981972 0.00479009116913 0)
(1.47355011816 0.00337842800894 0)
(1.4801755875 0.00233873791914 0)
(1.48470223802 0.00158891392045 0)
(1.4877361519 0.00105828906522 0)
(1.48972728751 0.000689463035092 0)
(1.49100271584 0.000437638737251 0)
(1.49179579458 0.000268886132849 0)
(1.4922701643 0.000158111594885 0)
(1.49253865581 8.71253202904e-05 0)
(1.49267773223 4.29757973631e-05 0)
(1.49273826594 1.65861051546e-05 0)
(1.4927534403 1.66579208371e-06 0)
(1.49274420405 -6.06667499536e-06 0)
(1.49272341688 -9.41161075268e-06 0)
(1.49269877393 -1.02174174987e-05 0)
(1.49267450309 -9.65376683821e-06 0)
(1.49265270175 -8.43947362682e-06 0)
(1.49263421133 -6.99255126959e-06 0)
(1.49261915454 -5.55316772659e-06 0)
(1.49260726909 -4.24140519594e-06 0)
(1.49259812526 -3.10468773616e-06 0)
(1.49259124746 -2.14918193677e-06 0)
(1.49258618175 -1.35868656503e-06 0)
(1.49258252809 -7.11353994609e-07 0)
(1.4925799508 -1.8577261367e-07 0)
(1.49257817987 2.39942891794e-07 0)
(1.49257700925 6.12007338564e-07 0)
(1.49257626145 9.81708001018e-07 0)
(1.49257578319 1.28762782825e-06 0)
(1.49257548259 1.57336908409e-06 0)
(1.49257530202 1.85623999544e-06 0)
(1.49257518859 2.14634355582e-06 0)
(1.49257510303 2.45080684854e-06 0)
(1.49257501915 2.77245312087e-06 0)
(1.49257491875 3.11084040801e-06 0)
(1.49257478858 3.4620636322e-06 0)
(1.49257461842 3.81760763734e-06 0)
(1.49257439951 4.16336057125e-06 0)
(1.49257412619 4.47950569349e-06 0)
(1.49257379476 4.73409689168e-06 0)
(1.49257339889 4.8825977626e-06 0)
(1.49257292681 4.86415875452e-06 0)
(1.49257235728 4.59519327302e-06 0)
(1.49257166193 3.9598581016e-06 0)
(1.49257082807 2.80756324278e-06 0)
(1.49256972462 1.02849519949e-06 0)
(1.49256792596 -1.59330867975e-06 0)
(1.49256512494 -5.65275558979e-06 0)
(1.49256093829 -1.17115742622e-05 0)
(1.49255434666 -2.05350681659e-05 0)
(1.49254373157 -3.32051203346e-05 0)
(1.49252654557 -5.1270160657e-05 0)
(1.49249867431 -7.69225602148e-05 0)
(1.49245340046 -0.000113170069518 0)
(1.49237985292 -0.000164406039787 0)
(1.49226097704 -0.000237078114165 0)
(1.49206935898 -0.000339651879876 0)
(1.49176027521 -0.00048472309057 0)
(1.49126149569 -0.000692685851023 0)
(1.49046427206 -0.000996891235578 0)
(1.48919891863 -0.0014297058465 0)
(1.48719931312 -0.00203876978211 0)
(1.48406667461 -0.00288548915357 0)
(1.47922059689 -0.00403739030228 0)
(1.47185330681 -0.00554884134868 0)
(1.46094985816 -0.0074215059774 0)
(1.44536087495 -0.0095615982639 0)
(1.42347358913 -0.0117209183784 0)
(0.993270464221 -0.00616840285577 0)
(1.03158097876 -0.0171003772643 0)
(1.08672174444 -0.0239897629153 0)
(1.15174557155 -0.0265602480686 0)
(1.21823542688 -0.0258179941646 0)
(1.27925782632 -0.023049111006 0)
(1.3314014653 -0.0193660479231 0)