/*--------------------------------*- C++ -*----------------------------------*\
| =========                 |                                                 |
| \\      /  F ield         | OpenFOAM: The Open Source CFD Toolbox           |
|  \\    /   O peration     | Version:  2106                                  |
|   \\  /    A nd           | Website:  www.openfoam.com                      |
|    \\/     M anipulation  |                                                 |
\*---------------------------------------------------------------------------*/
FoamFile
{
    version     2.0;
    format      ascii;
    arch        "LSB;label=32;scalar=64";
    class       volVectorField;
    location    "0.26";
    object      U;
}
// * * * * * * * * * * * * * * * * * * * * * * * * * * * * * * * * * * * * * //

dimensions      [0 1 -1 0 0 0 0];

internalField   nonuniform List<vector> 
9600
(
(0.675396178341 0.157677438932 0)
(0.563826157933 0.10243080605 0)
(0.381538932616 0.0510646925009 0)
(0.283853185354 0.0244589892268 0)
(0.232281024838 0.0119348225314 0)
(0.201907705715 0.00623035745577 0)
(0.183178403744 0.00352192610565 0)
(0.17127198284 0.00212007544008 0)
(0.163512236811 0.00132523594228 0)
(0.158392655199 0.000841456396359 0)
(0.155010691135 0.00053413565362 0)
(0.152789971249 0.00033503957527 0)
(0.151348683088 0.000205521026642 0)
(0.150429236019 0.000121792063875 0)
(0.149856449421 6.84341744726e-05 0)
(0.149511113696 3.51736710384e-05 0)
(0.149312504038 1.50871004615e-05 0)
(0.149206452574 3.5041064256e-06 0)
(0.149157069749 -2.7066707675e-06 0)
(0.149140957922 -5.61143954865e-06 0)
(0.149143239769 -6.52740069643e-06 0)
(0.149154635236 -6.4182035345e-06 0)
(0.149169574259 -5.7823036716e-06 0)
(0.14918494687 -4.92858028638e-06 0)
(0.149199118531 -4.04269287966e-06 0)
(0.149211367531 -3.22327453699e-06 0)
(0.14922150544 -2.51446851215e-06 0)
(0.149229632283 -1.92818324834e-06 0)
(0.149235985679 -1.45859839841e-06 0)
(0.149240851149 -1.09188150753e-06 0)
(0.149244511423 -8.11757028116e-07 0)
(0.149247220881 -6.02050980604e-07 0)
(0.149249196326 -4.47907247728e-07 0)
(0.149250616074 -3.36318208294e-07 0)
(0.149251622598 -2.56420614875e-07 0)
(0.149252326578 -1.99679669376e-07 0)
(0.149252811775 -1.5964826428e-07 0)
(0.149253140571 -1.31402495545e-07 0)
(0.149253359167 -1.11009901052e-07 0)
(0.149253501797 -9.55513357303e-08 0)
(0.149253593658 -8.33729976644e-08 0)
(0.149253652593 -7.45382986301e-08 0)
(0.149253689877 -7.05735989356e-08 0)
(0.149253711859 -7.14123937383e-08 0)
(0.149253723689 -7.43568437813e-08 0)
(0.149253729825 -7.86200892096e-08 0)
(0.149253732766 -8.45113854466e-08 0)
(0.149253733875 -9.21044167072e-08 0)
(0.149253734092 -1.00648568847e-07 0)
(0.149253734282 -1.09737323564e-07 0)
(0.149253734686 -1.19245833409e-07 0)
(0.149253734679 -1.29131573148e-07 0)
(0.149253733935 -1.39486608213e-07 0)
(0.14925373311 -1.50567185631e-07 0)
(0.149253732679 -1.62281662887e-07 0)
(0.149253732539 -1.74470889689e-07 0)
(0.149253732523 -1.87498399547e-07 0)
(0.149253732275 -2.01648159884e-07 0)
(0.149253731547 -2.16795209238e-07 0)
(0.149253730672 -2.32797753263e-07 0)
(0.149253729904 -2.4975839915e-07 0)
(0.149253728702 -2.67819342194e-07 0)
(0.149253726522 -2.87097453212e-07 0)
(0.149253723504 -3.07759292791e-07 0)
(0.149253719912 -3.29854232481e-07 0)
(0.149253715738 -3.53314445179e-07 0)
(0.149253710995 -3.78139161073e-07 0)
(0.149253705976 -4.04362866836e-07 0)
(0.149253701148 -4.32032633787e-07 0)
(0.149253696825 -4.61283608566e-07 0)
(0.14925369284 -4.92305188105e-07 0)
(0.149253688761 -5.25174814404e-07 0)
(0.149253684508 -5.59860194825e-07 0)
(0.149253680222 -5.96305633741e-07 0)
(0.149253675538 -6.34465321125e-07 0)
(0.149253669697 -6.74551537908e-07 0)
(0.149253662372 -7.1706898539e-07 0)
(0.149253654051 -7.62236596566e-07 0)
(0.149253645766 -8.09684440097e-07 0)
(0.149253638259 -8.59059163882e-07 0)
(0.1492536313 -9.10630848526e-07 0)
(0.149253623988 -9.64966026203e-07 0)
(0.14925361596 -1.02211051261e-06 0)
(0.149253608163 -1.08158034276e-06 0)
(0.149253601809 -1.14317670153e-06 0)
(0.149253596752 -1.2074842538e-06 0)
(0.149253591744 -1.27520425673e-06 0)
(0.149253586249 -1.34616033217e-06 0)
(0.149253580997 -1.41952588839e-06 0)
(0.149253576738 -1.49502975043e-06 0)
(0.149253573594 -1.57332615189e-06 0)
(0.149253571376 -1.65498452837e-06 0)
(0.149253569803 -1.7397305053e-06 0)
(0.14925356876 -1.82711702089e-06 0)
(0.149253568443 -1.91745907812e-06 0)
(0.14925356906 -2.01126892357e-06 0)
(0.149253570894 -2.10821491973e-06 0)
(0.149253574755 -2.20760061965e-06 0)
(0.149253581261 -2.30894253459e-06 0)
(0.14925359051 -2.41207058598e-06 0)
(0.149253603694 -2.51710870332e-06 0)
(0.149253622949 -2.62420534439e-06 0)
(0.149253649839 -2.73310174945e-06 0)
(0.149253685253 -2.8435574431e-06 0)
(0.149253730391 -2.95617980537e-06 0)
(0.149253787773 -3.07185696565e-06 0)
(0.149253860332 -3.19017902021e-06 0)
(0.149253951979 -3.31041345589e-06 0)
(0.149254068623 -3.43358188407e-06 0)
(0.149254215936 -3.56344195191e-06 0)
(0.14925440067 -3.70758875147e-06 0)
(0.149254631734 -3.86822283894e-06 0)
(0.149254918472 -4.04028970812e-06 0)
(0.149255273739 -4.22183124112e-06 0)
(0.149255715321 -4.41312624521e-06 0)
(0.149256264793 -4.61505052463e-06 0)
(0.149256947273 -4.82864857132e-06 0)
(0.149257793293 -5.0551756961e-06 0)
(0.149258843603 -5.29659453772e-06 0)
(0.149260146851 -5.55524961824e-06 0)
(0.149261759579 -5.83268315681e-06 0)
(0.149263754266 -6.1330368706e-06 0)
(0.149266225097 -6.46371480514e-06 0)
(0.149269300449 -6.84631194984e-06 0)
(0.149273144509 -7.35156156031e-06 0)
(0.149277895968 -8.07516042312e-06 0)
(0.149283737709 -8.95342554944e-06 0)
(0.149290956262 -9.95635176821e-06 0)
(0.149299895884 -1.10858001764e-05 0)
(0.149310967796 -1.23524327086e-05 0)
(0.149324678333 -1.37725470795e-05 0)
(0.149341661119 -1.53737870283e-05 0)
(0.149362699038 -1.71918318983e-05 0)
(0.149388757603 -1.92686975054e-05 0)
(0.149421037056 -2.16553701149e-05 0)
(0.149461029796 -2.44158274609e-05 0)
(0.149510589032 -2.76326164613e-05 0)
(0.149572017709 -3.14101484688e-05 0)
(0.14964818301 -3.58803320612e-05 0)
(0.149742656974 -4.12116027731e-05 0)
(0.149859892446 -4.76154842334e-05 0)
(0.150005458875 -5.53607516533e-05 0)
(0.150186338568 -6.47945739449e-05 0)
(0.150411294339 -7.63587564656e-05 0)
(0.150691377202 -9.06199845545e-05 0)
(0.15104059534 -0.000108315013121 0)
(0.151476776142 -0.00013040302836 0)
(0.152022768221 -0.000158143893975 0)
(0.152708110111 -0.000193201176092 0)
(0.153571366701 -0.000237782963106 0)
(0.154663564036 -0.000294867937967 0)
(0.156053479707 -0.00036863512581 0)
(0.157836583058 -0.000465653091207 0)
(0.160153050039 -0.000599262441229 0)
(0.163230733573 -0.000806495733004 0)
(0.167493355679 -0.00121041373234 0)
(0.173895838378 -0.0022476022869 0)
(0.185290110013 -0.00554437235723 0)
(0.210326878059 -0.0172741068483 0)
(0.265538080152 -0.0603184015255 0)
(0.977201166527 0.296997125846 0)
(0.962687457878 0.250387272772 0)
(0.82064603366 0.158581009893 0)
(0.697824893265 0.0957993460876 0)
(0.610491662843 0.0579132751726 0)
(0.549133311441 0.0359038503761 0)
(0.506705983384 0.0229309351912 0)
(0.477662018192 0.014978878853 0)
(0.457815296489 0.0099097325011 0)
(0.444277671697 0.00658330986018 0)
(0.435087220981 0.00436198749456 0)
(0.42889554822 0.00286682736909 0)
(0.424768029343 0.00185972088438 0)
(0.422054220515 0.00118457252714 0)
(0.420301039493 0.000736111167052 0)
(0.419193667052 0.000442159838853 0)
(0.418514597482 0.000252860409527 0)
(0.418114820049 0.000133739213404 0)
(0.417893359511 6.10520630843e-05 0)
(0.41778271433 1.85769509421e-05 0)
(0.417738454729 -4.63552864252e-06 0)
(0.417731915848 -1.60111812862e-05 0)
(0.417745131143 -2.03069158776e-05 0)
(0.417767155132 -2.06091408032e-05 0)
(0.417791605362 -1.88551255772e-05 0)
(0.417815019596 -1.62200023993e-05 0)
(0.417835737883 -1.33826816081e-05 0)
(0.417853168459 -1.07059509879e-05 0)
(0.417867316104 -8.35819279704e-06 0)
(0.417878487422 -6.39433337949e-06 0)
(0.417887113567 -4.80732633148e-06 0)
(0.417893648689 -3.55896282349e-06 0)
(0.417898516921 -2.59819793447e-06 0)
(0.417902088362 -1.87198366705e-06 0)
(0.417904671258 -1.33142602652e-06 0)
(0.417906513426 -9.34669367517e-07 0)
(0.417907808837 -6.47386142364e-07 0)
(0.417908706496 -4.42084469144e-07 0)
(0.417909319015 -2.97042096594e-07 0)
(0.417909730109 -1.95574792374e-07 0)
(0.417910000784 -1.25553887198e-07 0)
(0.417910174401 -7.88583214248e-08 0)
(0.417910281997 -5.03538939395e-08 0)
(0.417910346516 -3.5014743956e-08 0)
(0.417910383374 -2.70924647834e-08 0)
(0.417910401838 -2.32287848679e-08 0)
(0.41791040853 -2.12046748059e-08 0)
(0.417910408854 -1.98302705919e-08 0)
(0.417910406148 -1.90685814172e-08 0)
(0.417910402093 -1.90801448522e-08 0)
(0.417910397469 -2.01210939241e-08 0)
(0.417910391954 -2.19024202934e-08 0)
(0.417910385262 -2.38889136258e-08 0)
(0.417910378349 -2.60421598243e-08 0)
(0.417910372045 -2.84355246547e-08 0)
(0.417910365827 -3.0872034852e-08 0)
(0.417910359138 -3.35979850591e-08 0)
(0.417910351981 -3.68052608572e-08 0)
(0.417910344421 -4.00178896986e-08 0)
(0.417910336636 -4.28891431439e-08 0)
(0.41791032868 -4.57138769101e-08 0)
(0.417910319976 -4.87454454255e-08 0)
(0.417910309907 -5.18998049235e-08 0)
(0.417910298611 -5.51955803173e-08 0)
(0.417910286477 -5.87772591812e-08 0)
(0.417910273485 -6.2672176291e-08 0)
(0.417910259583 -6.67366123926e-08 0)
(0.417910245061 -7.07734569702e-08 0)
(0.417910230273 -7.47422826812e-08 0)
(0.417910215348 -7.88396986426e-08 0)
(0.417910200129 -8.32494874629e-08 0)
(0.417910184362 -8.78884405498e-08 0)
(0.417910168076 -9.26179881768e-08 0)
(0.417910151495 -9.75008085034e-08 0)
(0.417910134158 -1.02769286026e-07 0)
(0.417910114892 -1.08600052394e-07 0)
(0.417910093261 -1.15167769331e-07 0)
(0.417910070378 -1.22366760358e-07 0)
(0.417910047797 -1.29659176103e-07 0)
(0.417910025823 -1.36661329885e-07 0)
(0.417910003464 -1.43799033089e-07 0)
(0.417909979969 -1.51753896101e-07 0)
(0.417909955865 -1.60274141154e-07 0)
(0.417909932377 -1.68426133698e-07 0)
(0.417909909918 -1.76098815699e-07 0)
(0.41790988767 -1.8435557987e-07 0)
(0.41790986508 -1.93958132355e-07 0)
(0.417909842963 -2.0445449705e-07 0)
(0.417909822238 -2.15032754295e-07 0)
(0.417909802558 -2.2554890846e-07 0)
(0.417909783538 -2.36633074298e-07 0)
(0.41790976604 -2.48988553582e-07 0)
(0.417909750971 -2.62634600813e-07 0)
(0.417909738073 -2.77210384644e-07 0)
(0.417909727081 -2.92920458051e-07 0)
(0.417909719159 -3.10258552286e-07 0)
(0.417909716197 -3.29043525787e-07 0)
(0.417909719836 -3.49194493945e-07 0)
(0.417909730994 -3.71735725377e-07 0)
(0.417909750371 -3.98199090743e-07 0)
(0.417909780612 -4.29372341595e-07 0)
(0.417909826025 -4.64472622866e-07 0)
(0.417909890408 -5.03517060972e-07 0)
(0.41790997639 -5.47078004557e-07 0)
(0.417910087373 -5.96167336419e-07 0)
(0.417910230559 -6.52254087331e-07 0)
(0.417910415085 -7.15527798899e-07 0)
(0.417910649908 -7.85140986956e-07 0)
(0.417910944704 -8.61194055519e-07 0)
(0.417911308364 -9.4223406314e-07 0)
(0.417911760386 -1.02266216335e-06 0)
(0.417912334759 -1.10435989186e-06 0)
(0.417913061717 -1.19694999405e-06 0)
(0.417913971112 -1.30580922251e-06 0)
(0.417915104872 -1.43549555525e-06 0)
(0.41791651699 -1.59230823185e-06 0)
(0.417918273213 -1.78422071743e-06 0)
(0.417920453507 -2.01947643371e-06 0)
(0.417923159826 -2.31014551062e-06 0)
(0.417926518378 -2.67208075759e-06 0)
(0.417930680126 -3.12263991846e-06 0)
(0.4179358325 -3.68485712251e-06 0)
(0.417942207962 -4.38929202011e-06 0)
(0.41795008097 -5.27910767208e-06 0)
(0.417959795318 -6.44349751307e-06 0)
(0.417971848049 -8.01153253186e-06 0)
(0.417986841249 -1.00094371268e-05 0)
(0.418005447344 -1.24968272724e-05 0)
(0.418028519139 -1.55794075719e-05 0)
(0.418057118717 -1.93941776519e-05 0)
(0.418092555807 -2.41073597706e-05 0)
(0.418136459683 -2.99301460195e-05 0)
(0.418190854117 -3.71281007508e-05 0)
(0.418258245784 -4.60273258456e-05 0)
(0.418341745285 -5.7029142598e-05 0)
(0.418445212678 -7.06317847569e-05 0)
(0.418573440571 -8.74570542645e-05 0)
(0.418732386835 -0.000108279883106 0)
(0.418929465139 -0.000134070522816 0)
(0.419173911701 -0.000166049777731 0)
(0.419477245554 -0.000205748244223 0)
(0.419853861961 -0.00025509699887 0)
(0.420321800768 -0.000316559538756 0)
(0.420903720557 -0.000393278231605 0)
(0.421628188969 -0.000489285816866 0)
(0.422531402942 -0.000609824574847 0)
(0.423659467182 -0.000761771578245 0)
(0.425071549446 -0.000954265118439 0)
(0.426844326553 -0.00119966452054 0)
(0.429078396082 -0.00151506140368 0)
(0.431908004867 -0.00192487978149 0)
(0.435516590417 -0.00246578116531 0)
(0.440163165361 -0.00319704178086 0)
(0.446230953225 -0.00422556776712 0)
(0.45432350722 -0.00577238882407 0)
(0.465448796691 -0.00835618255141 0)
(0.48136594301 -0.0133020626296 0)
(0.505469233083 -0.0242088438169 0)
(0.544367289731 -0.0511211367437 0)
(0.602318276717 -0.118325567691 0)
(1.03387038282 0.239240961267 0)
(1.08314081137 0.293634383494 0)
(1.03294437506 0.239131933171 0)
(0.954408205467 0.174539016892 0)
(0.880112579687 0.121551461659 0)
(0.818677610995 0.0832335924292 0)
(0.771466788795 0.056825811328 0)
(0.736691568878 0.0388125722737 0)
(0.711672094626 0.0264913182343 0)
(0.693953120622 0.0180235772167 0)
(0.681568191996 0.0121876205603 0)
(0.673018588668 0.00816650376135 0)
(0.667192218668 0.00540556622273 0)
(0.663277736305 0.00352226318182 0)
(0.660690299039 0.00224961269888 0)
(0.659012724632 0.00140002894573 0)
(0.657950515988 0.000841456837763 0)
(0.657298060413 0.000481123439152 0)
(0.656913514152 0.000254194023201 0)
(0.656700321 0.000115710419979 0)
(0.656593711515 3.47958805902e-05 0)
(0.656550997062 -9.46520092372e-06 0)
(0.656544653584 -3.10081669558e-05 0)
(0.656557351425 -3.90708254779e-05 0)
(0.656578534823 -3.95429577831e-05 0)
(0.656602057532 -3.6115943352e-05 0)
(0.656624585748 -3.10274698757e-05 0)
(0.656644521851 -2.55668704333e-05 0)
(0.656661295778 -2.04224567924e-05 0)
(0.656674910839 -1.59143995678e-05 0)
(0.656685661133 -1.21467263777e-05 0)
(0.656693961275 -9.10374802401e-06 0)
(0.656700248853 -6.71010468345e-06 0)
(0.656704932628 -4.86733037499e-06 0)
(0.656708368588 -3.47471561511e-06 0)
(0.6567108527 -2.43980932142e-06 0)
(0.656712622988 -1.682649071e-06 0)
(0.656713866308 -1.13696953099e-06 0)
(0.656714726502 -7.49692676531e-07 0)
(0.65671531234 -4.79427358615e-07 0)
(0.656715704695 -2.94580911016e-07 0)
(0.656715962607 -1.70986788299e-07 0)
(0.656716128471 -9.00458896086e-08 0)
(0.656716232348 -3.80933657636e-08 0)
(0.656716295094 -5.8772569434e-09 0)
(0.656716331146 1.34561564246e-08 0)
(0.656716350119 2.49554585563e-08 0)
(0.656716357618 3.18364951753e-08 0)
(0.6567163574 3.58745526392e-08 0)
(0.656716352721 3.87857109947e-08 0)
(0.656716345884 4.11864955671e-08 0)
(0.656716337928 4.31799045759e-08 0)
(0.65671632895 4.56188362935e-08 0)
(0.656716319497 4.88943662066e-08 0)
(0.656716310308 5.23808550054e-08 0)
(0.656716301124 5.57894607181e-08 0)
(0.656716291448 5.93279991505e-08 0)
(0.656716281501 6.32199882947e-08 0)
(0.656716271451 6.78310785593e-08 0)
(0.656716261059 7.34080918253e-08 0)
(0.656716250138 7.95608114481e-08 0)
(0.656716238413 8.58414076513e-08 0)
(0.656716225434 9.23845261737e-08 0)
(0.65671621107 9.94307877407e-08 0)
(0.656716195499 1.06814202098e-07 0)
(0.656716178874 1.14393960568e-07 0)
(0.656716161355 1.22405063003e-07 0)
(0.656716143156 1.31216982881e-07 0)
(0.656716124418 1.41082254205e-07 0)
(0.656716105218 1.51898865714e-07 0)
(0.65671608555 1.63209017897e-07 0)
(0.656716065219 1.74928897358e-07 0)
(0.656716044056 1.87463815704e-07 0)
(0.656716022006 2.00693156484e-07 0)
(0.656715998753 2.14044585234e-07 0)
(0.656715973629 2.27339310064e-07 0)
(0.65671594642 2.41175537672e-07 0)
(0.656715918059 2.56322821466e-07 0)
(0.656715889812 2.72907161464e-07 0)
(0.656715861743 2.90492513099e-07 0)
(0.656715832821 3.08732238811e-07 0)
(0.656715802706 3.27739189335e-07 0)
(0.65671577236 3.47998490751e-07 0)
(0.656715742685 3.69789565076e-07 0)
(0.656715713435 3.92646195296e-07 0)
(0.656715683942 4.16062622454e-07 0)
(0.656715654314 4.40502128675e-07 0)
(0.6567156254 4.66626523385e-07 0)
(0.656715597863 4.94122413354e-07 0)
(0.656715571579 5.22405587003e-07 0)
(0.656715546347 5.51512790681e-07 0)
(0.656715522894 5.81577444494e-07 0)
(0.656715502309 6.12276812821e-07 0)
(0.656715484932 6.43289018924e-07 0)
(0.656715470942 6.74818938387e-07 0)
(0.656715461637 7.07223886735e-07 0)
(0.656715458763 7.40648736073e-07 0)
(0.65671546339 7.74714980752e-07 0)
(0.656715476248 8.08676227745e-07 0)
(0.656715499561 8.43734964795e-07 0)
(0.656715539132 8.81597590083e-07 0)
(0.65671560086 9.20428983672e-07 0)
(0.656715688786 9.57457866172e-07 0)
(0.656715807366 9.90388457291e-07 0)
(0.656715962587 1.01846887863e-06 0)
(0.656716164441 1.04040022791e-06 0)
(0.656716426128 1.0534104046e-06 0)
(0.656716762165 1.05454310074e-06 0)
(0.656717191881 1.04039309763e-06 0)
(0.656717740972 1.00921761241e-06 0)
(0.656718433782 9.64179478652e-07 0)
(0.656719292804 8.99820743896e-07 0)
(0.656720355045 8.00433127766e-07 0)
(0.656721674688 6.53596769989e-07 0)
(0.656723315077 4.46153392648e-07 0)
(0.656725352687 1.60150051365e-07 0)
(0.656727882714 -2.27267252241e-07 0)
(0.65673102055 -7.41713638498e-07 0)
(0.656734909694 -1.41599744145e-06 0)
(0.656739729611 -2.29334276331e-06 0)
(0.656745698819 -3.42533412077e-06 0)
(0.656753089049 -4.87500914717e-06 0)
(0.65676224384 -6.72378121137e-06 0)
(0.656773584415 -9.0671229423e-06 0)
(0.656787620941 -1.20121774909e-05 0)
(0.656804996114 -1.56981989964e-05 0)
(0.656826509504 -2.03456352239e-05 0)
(0.656853142096 -2.62011706961e-05 0)
(0.656886119703 -3.35676924957e-05 0)
(0.656926964076 -4.28257022515e-05 0)
(0.656977551776 -5.44399212888e-05 0)
(0.657040206324 -6.89841500639e-05 0)
(0.657117810589 -8.71736436652e-05 0)
(0.657213939006 -0.00010989501751 0)
(0.657333025837 -0.000138249210492 0)
(0.657480572485 -0.000173605213337 0)
(0.657663408962 -0.000217665178267 0)
(0.657890020545 -0.000272549744196 0)
(0.658170956691 -0.000340910058093 0)
(0.658519354968 -0.000426070508055 0)
(0.658951592391 -0.000532204078023 0)
(0.659488106633 -0.000664570454377 0)
(0.660154473643 -0.000829847130219 0)
(0.660982781523 -0.00103654756192 0)
(0.662013404692 -0.00129559373026 0)
(0.663297368842 -0.00162114999558 0)
(0.664899490152 -0.00203178221682 0)
(0.666902649266 -0.0025521582322 0)
(0.669413757588 -0.00321567775646 0)
(0.672572252592 -0.00406865492989 0)
(0.676562654315 -0.0051774103916 0)
(0.681633855958 -0.00664117496949 0)
(0.688129705178 -0.00861724831892 0)
(0.696539041171 -0.0113734572853 0)
(0.70757860872 -0.0154036825659 0)
(0.722315506054 -0.0216875486068 0)
(0.742290327608 -0.0322530901482 0)
(0.769592952661 -0.0513227206286 0)
(0.806394161267 -0.0874672640376 0)
(0.848931000549 -0.15510108251 0)
(1.03384128095 0.171306943604 0)
(1.10231584437 0.275556747625 0)
(1.11663620486 0.266312372702 0)
(1.09207924448 0.219892601491 0)
(1.05195419474 0.168210314344 0)
(1.01022221012 0.12361533499 0)
(0.973507714417 0.0888850591874 0)
(0.94388594372 0.0630494616052 0)
(0.921162795179 0.0442607986011 0)
(0.904299816977 0.030774435818 0)
(0.892086128344 0.0211830164124 0)
(0.883411225856 0.0144172998122 0)
(0.877355054665 0.00968544371426 0)
(0.873196209212 0.00640758946264 0)
(0.870388058657 0.00416172599157 0)
(0.868526253508 0.00264232370339 0)
(0.867317295202 0.00162947821653 0)
(0.866551580245 0.000966024450363 0)
(0.866081651602 0.00054057078477 0)
(0.865805292848 0.00027492426086 0)
(0.865652717568 0.000114789062917 0)
(0.865577084951 2.2954463774e-05 0)
(0.865547471933 -2.5725632395e-05 0)
(0.865543933841 -4.80449702389e-05 0)
(0.865553980863 -5.49250787079e-05 0)
(0.865569983067 -5.33273114917e-05 0)
(0.865587519092 -4.75749755269e-05 0)
(0.865604207855 -4.02478171656e-05 0)
(0.865618920335 -3.28004438633e-05 0)
(0.865631266276 -2.59821857529e-05 0)
(0.865641266879 -2.01150379819e-05 0)
(0.865649150353 -1.52741639175e-05 0)
(0.865655228725 -1.14026202445e-05 0)
(0.865659827578 -8.38195073496e-06 0)
(0.865663249174 -6.07340068315e-06 0)
(0.86566575593 -4.34054127647e-06 0)
(0.865667565603 -3.06059857739e-06 0)
(0.865668853159 -2.12926231514e-06 0)
(0.865669755811 -1.46129713804e-06 0)
(0.865670379037 -9.88980492794e-07 0)
(0.86567080261 -6.59866583473e-07 0)
(0.865671085676 -4.34169645829e-07 0)
(0.865671271084 -2.82167830609e-07 0)
(0.86567138942 -1.81971303615e-07 0)
(0.8656714622 -1.17577712793e-07 0)
(0.865671504286 -7.73909107264e-08 0)
(0.865671525969 -5.36098781701e-08 0)
(0.865671534755 -4.08434753023e-08 0)
(0.865671536175 -3.48864892748e-08 0)
(0.865671533342 -3.27878751642e-08 0)
(0.865671527336 -3.31903405446e-08 0)
(0.86567151908 -3.56280020327e-08 0)
(0.865671509234 -3.94073509932e-08 0)
(0.865671498057 -4.38347269986e-08 0)
(0.865671486123 -4.88813153038e-08 0)
(0.865671473711 -5.45316126563e-08 0)
(0.865671460724 -6.02809473835e-08 0)
(0.865671447341 -6.59126664318e-08 0)
(0.865671433688 -7.15323172918e-08 0)
(0.865671419385 -7.72280359474e-08 0)
(0.865671403965 -8.31607964155e-08 0)
(0.865671387265 -8.94651372801e-08 0)
(0.865671369173 -9.59686996049e-08 0)
(0.86567134954 -1.02611196334e-07 0)
(0.865671328418 -1.09607255975e-07 0)
(0.865671306074 -1.17130207114e-07 0)
(0.865671282797 -1.25067305084e-07 0)
(0.865671258824 -1.33165130878e-07 0)
(0.865671234138 -1.41140127872e-07 0)
(0.865671208356 -1.48899202089e-07 0)
(0.865671181342 -1.5681002709e-07 0)
(0.865671153501 -1.65316831873e-07 0)
(0.865671124815 -1.74498970371e-07 0)
(0.865671094748 -1.84329232816e-07 0)
(0.865671062837 -1.95053771462e-07 0)
(0.865671028845 -2.06961554859e-07 0)
(0.865670993043 -2.19809136376e-07 0)
(0.86567095612 -2.32899722835e-07 0)
(0.86567091866 -2.45941616038e-07 0)
(0.86567088063 -2.59338833612e-07 0)
(0.865670841509 -2.73403464033e-07 0)
(0.865670801226 -2.87998917261e-07 0)
(0.865670760488 -3.0306592917e-07 0)
(0.865670719874 -3.19027769649e-07 0)
(0.865670679308 -3.36326446189e-07 0)
(0.865670638786 -3.54734309047e-07 0)
(0.865670598716 -3.7358389337e-07 0)
(0.865670559399 -3.92847367375e-07 0)
(0.865670520979 -4.13554812224e-07 0)
(0.86567048364 -4.36741694251e-07 0)
(0.865670447765 -4.62643519859e-07 0)
(0.865670414148 -4.91278544424e-07 0)
(0.865670383676 -5.23074265738e-07 0)
(0.865670356979 -5.58477460945e-07 0)
(0.865670334881 -5.97452313767e-07 0)
(0.865670319079 -6.4008493811e-07 0)
(0.865670311522 -6.87015480431e-07 0)
(0.865670313977 -7.38992895406e-07 0)
(0.865670329738 -7.96658723754e-07 0)
(0.865670362943 -8.59398158627e-07 0)
(0.865670415624 -9.26579900712e-07 0)
(0.86567049072 -1.00048754111e-06 0)
(0.865670594436 -1.08448968188e-06 0)
(0.865670734294 -1.18189763982e-06 0)
(0.865670918415 -1.29435961592e-06 0)
(0.865671157307 -1.42384014491e-06 0)
(0.865671464991 -1.57539492941e-06 0)
(0.865671857579 -1.75609238336e-06 0)
(0.865672355225 -1.97451067446e-06 0)
(0.865672983581 -2.24183837719e-06 0)
(0.865673773057 -2.57399658569e-06 0)
(0.865674760598 -2.98618053064e-06 0)
(0.865675993463 -3.49105351235e-06 0)
(0.865677530835 -4.10725838168e-06 0)
(0.865679443843 -4.86004303596e-06 0)
(0.865681820396 -5.78213599211e-06 0)
(0.865684771965 -6.91550287841e-06 0)
(0.865688434627 -8.31004869653e-06 0)
(0.865692975143 -1.00264961688e-05 0)
(0.865698602549 -1.21435003066e-05 0)
(0.865705574029 -1.47559671276e-05 0)
(0.865714205933 -1.79793625315e-05 0)
(0.865724897153 -2.19621611982e-05 0)
(0.86573814263 -2.68944877194e-05 0)
(0.865754543378 -3.30071495776e-05 0)
(0.86577484719 -4.05818023458e-05 0)
(0.865799987326 -4.99681341816e-05 0)
(0.865831111704 -6.15882128986e-05 0)
(0.865869643659 -7.59684354261e-05 0)
(0.865917353771 -9.37715579453e-05 0)
(0.865976432378 -0.000115820644954 0)
(0.866049589423 -0.000143136502958 0)
(0.866140185485 -0.00017698745234 0)
(0.866252385894 -0.000218947694435 0)
(0.866391355236 -0.000270975424629 0)
(0.866563500492 -0.00033550795862 0)
(0.866776772696 -0.00041558059516 0)
(0.867041042189 -0.000514979719981 0)
(0.867368569587 -0.000638433391281 0)
(0.867774607464 -0.000791861825239 0)
(0.86827814613 -0.000982702406255 0)
(0.868902843027 -0.00122032388203 0)
(0.869678238349 -0.00151658358681 0)
(0.870641300945 -0.00188657199767 0)
(0.871838387694 -0.00234961180248 0)
(0.873327828664 -0.00293066418511 0)
(0.875183321595 -0.00366231254103 0)
(0.877498436297 -0.00458763612969 0)
(0.880392738044 -0.0057645688806 0)
(0.884020203626 -0.00727272118018 0)
(0.888580993434 -0.00922455057742 0)
(0.894338167594 -0.0117846668447 0)
(0.901641273562 -0.0152048128681 0)
(0.910958380788 -0.0198897883624 0)
(0.922914658427 -0.026524913655 0)
(0.938315971017 -0.0363214462197 0)
(0.958071820497 -0.0514556068539 0)
(0.982849877459 -0.0757200636033 0)
(1.01201753605 -0.115144468407 0)
(1.03965383166 -0.176804035952 0)
(1.02388346007 0.119321981642 0)
(1.08875436167 0.231514423487 0)
(1.13660482753 0.25286894056 0)
(1.15406272421 0.228905046919 0)
(1.15000112193 0.188337384076 0)
(1.1353762341 0.146577290669 0)
(1.11757777301 0.110164820443 0)
(1.10059199359 0.0808376064791 0)
(1.08612240715 0.0582502012032 0)
(1.07458761085 0.0413417867686 0)
(1.06578678687 0.0289362840286 0)
(1.05928155554 0.0199770212804 0)
(1.05459131621 0.013594931735 0)
(1.05128025882 0.00910742946331 0)
(1.04898735285 0.00599313509956 0)
(1.04742904302 0.00386144251491 0)
(1.04639044838 0.00242413658114 0)
(1.04571297851 0.00147134679293 0)
(1.04528204587 0.00085213348526 0)
(1.04501636325 0.000459260464227 0)
(1.04485924044 0.000217487564574 0)
(1.04477181122 7.4717092243e-05 0)
(1.04472783019 -4.64582186117e-06 0)
(1.04470996358 -4.44448263363e-05 0)
(1.04470703637 -6.05349645378e-05 0)
(1.04471195808 -6.30926876983e-05 0)
(1.04472039751 -5.85435627105e-05 0)
(1.04472983818 -5.0810839922e-05 0)
(1.04473891212 -4.21796897184e-05 0)
(1.0447469587 -3.38925124239e-05 0)
(1.0447537379 -2.65475801388e-05 0)
(1.04475924534 -2.03611674762e-05 0)
(1.04476359654 -1.53360105861e-05 0)
(1.04476695736 -1.13661832602e-05 0)
(1.04476950392 -8.29998303823e-06 0)
(1.04477140103 -5.97630308233e-06 0)
(1.04477279214 -4.24444892823e-06 0)
(1.04477379673 -2.97336530811e-06 0)
(1.04477451149 -2.05407323043e-06 0)
(1.04477501262 -1.39834471485e-06 0)
(1.04477535878 -9.36679151893e-07 0)
(1.04477559414 -6.15991316119e-07 0)
(1.04477575132 -3.96524905609e-07 0)
(1.044775854 -2.48669277852e-07 0)
(1.0447759192 -1.50496950807e-07 0)
(1.04477595881 -8.60711689979e-08 0)
(1.04477598092 -4.42567073395e-08 0)
(1.044775991 -1.77119976456e-08 0)
(1.044775993 -1.84592148799e-09 0)
(1.04477598945 6.52863236777e-09 0)
(1.0447759819 1.02820130255e-08 0)
(1.0447759718 1.16017038125e-08 0)
(1.04477596008 1.16893912931e-08 0)
(1.04477594724 1.12630414083e-08 0)
(1.04477593379 1.05915593575e-08 0)
(1.04477592005 9.89721937062e-09 0)
(1.0447759058 9.6265589288e-09 0)
(1.04477589085 9.78846987332e-09 0)
(1.04477587521 9.99917155825e-09 0)
(1.04477585867 1.00954672409e-08 0)
(1.04477584101 1.02238030792e-08 0)
(1.04477582224 1.05658220224e-08 0)
(1.04477580208 1.12241800183e-08 0)
(1.04477578008 1.21775796244e-08 0)
(1.04477575621 1.33619613688e-08 0)
(1.04477573087 1.47303905876e-08 0)
(1.04477570451 1.63650657902e-08 0)
(1.04477567742 1.84076639364e-08 0)
(1.04477564959 2.09281844069e-08 0)
(1.04477562067 2.39989117136e-08 0)
(1.04477559027 2.76092935928e-08 0)
(1.04477555841 3.13334082937e-08 0)
(1.04477552522 3.46980159713e-08 0)
(1.04477549053 3.78042622634e-08 0)
(1.0447754538 4.08464247505e-08 0)
(1.04477541471 4.38778485627e-08 0)
(1.04477537378 4.69412467375e-08 0)
(1.04477533194 5.02573899674e-08 0)
(1.04477528957 5.41051063093e-08 0)
(1.04477524627 5.84922338642e-08 0)
(1.04477520149 6.32694144716e-08 0)
(1.04477515522 6.83790335147e-08 0)
(1.04477510802 7.36751822939e-08 0)
(1.04477506049 7.88922720331e-08 0)
(1.04477501298 8.41357310062e-08 0)
(1.04477496574 8.98918917125e-08 0)
(1.04477491873 9.63596438423e-08 0)
(1.04477487155 1.03091189405e-07 0)
(1.04477482419 1.09206130093e-07 0)
(1.04477477728 1.14041915676e-07 0)
(1.04477473151 1.17493271825e-07 0)
(1.04477468758 1.19405325463e-07 0)
(1.04477464651 1.19222117647e-07 0)
(1.04477460937 1.1649957664e-07 0)
(1.04477457696 1.11115570088e-07 0)
(1.0447745504 1.02541436367e-07 0)
(1.04477453131 8.94131945387e-08 0)
(1.04477452131 7.03269410973e-08 0)
(1.04477452298 4.38511100122e-08 0)
(1.04477454043 7.1873054103e-09 0)
(1.04477457824 -4.26973751059e-08 0)
(1.0447746407 -1.07422140464e-07 0)
(1.04477473297 -1.90320348852e-07 0)
(1.04477486311 -2.95964424786e-07 0)
(1.04477504071 -4.28657879313e-07 0)
(1.04477527622 -5.93425903727e-07 0)
(1.044775583 -7.98079687941e-07 0)
(1.04477597791 -1.05235567544e-06 0)
(1.04477648303 -1.36713164452e-06 0)
(1.04477712579 -1.75538442872e-06 0)
(1.04477793652 -2.23344458741e-06 0)
(1.04477895203 -2.82255442994e-06 0)
(1.04478022124 -3.54878922176e-06 0)
(1.04478180613 -4.44453352585e-06 0)
(1.04478378123 -5.54891792147e-06 0)
(1.04478623715 -6.90997471398e-06 0)
(1.04478928923 -8.58954184739e-06 0)
(1.04479308013 -1.06633739354e-05 0)
(1.04479778227 -1.32227922955e-05 0)
(1.04480361211 -1.63823918609e-05 0)
(1.04481083906 -2.02851620264e-05 0)
(1.04481979269 -2.51043281363e-05 0)
(1.04483088327 -3.10569630715e-05 0)
(1.04484462334 -3.84203721851e-05 0)
(1.04486164056 -4.75347247771e-05 0)
(1.04488271008 -5.88155994265e-05 0)
(1.04490879781 -7.27825730006e-05 0)
(1.04494109624 -9.00747671566e-05 0)
(1.04498108105 -0.000111479233978 0)
(1.04503058642 -0.000137975311618 0)
(1.04509188256 -0.000170780244515 0)
(1.04516777796 -0.000211402738335 0)
(1.04526175499 -0.000261715645685 0)
(1.04537812816 -0.000324044223366 0)
(1.04552224278 -0.000401276805514 0)
(1.04570072516 -0.000497004446928 0)
(1.0459217917 -0.000615699550163 0)
(1.04619563525 -0.000762939285677 0)
(1.04653490363 -0.000945679477998 0)
(1.04695530164 -0.00117261812328 0)
(1.04747634496 -0.00145467105828 0)
(1.04812229214 -0.00180556543181 0)
(1.04892333938 -0.00224262558492 0)
(1.04991713167 -0.00278783579445 0)
(1.05115064562 -0.00346924721501 0)