/*--------------------------------*- C++ -*----------------------------------*\
| =========                 |                                                 |
| \\      /  F ield         | OpenFOAM: The Open Source CFD Toolbox           |
|  \\    /   O peration     | Version:  2106                                  |
|   \\  /    A nd           | Website:  www.openfoam.com                      |
|    \\/     M anipulation  |                                                 |
\*---------------------------------------------------------------------------*/
FoamFile
{
    version     2.0;
    format      ascii;
    arch        "LSB;label=32;scalar=64";
    class       surfaceScalarField;
    location    "0.082";
    object      phi;
}
// * * * * * * * * * * * * * * * * * * * * * * * * * * * * * * * * * * * * * //

dimensions      [0 3 -1 0 0 0 0];

oriented        oriented;

internalField   nonuniform List<scalar> 
799
(
1.75297e-32
4.50543e-32
5.79374e-32
4.67888e-32
2.1236e-32
-4.58988e-32
-1.05772e-31
-1.52139e-31
-1.62679e-31
-1.25407e-31
-7.00961e-32
-8.30839e-33
2.96747e-32
3.89224e-32
1.68382e-32
-2.28927e-32
-7.42897e-32
-1.27155e-31
-1.67641e-31
-1.95778e-31
-1.87772e-31
-1.51795e-31
-9.07414e-32
-2.00838e-32
2.03938e-32
2.9377e-32
-1.24019e-32
-8.31475e-32
-1.49567e-31
-2.02287e-31
-2.05268e-31
-1.78106e-31
-1.31916e-31
-7.70143e-32
-5.22794e-32
-4.1359e-32
-5.87194e-32
-9.67849e-32
-1.26835e-31
-1.63703e-31
-1.72844e-31
-1.60533e-31
-1.37237e-31
-9.06902e-32
-6.56087e-32
-5.5463e-32
-7.15205e-32
-1.20622e-31
-1.60711e-31
-1.97134e-31
-1.99189e-31
-1.65467e-31
-1.22399e-31
-6.81982e-32
-4.38771e-32
-5.01179e-32
-8.3295e-32
-1.42454e-31
-1.87914e-31
-2.13116e-31
-1.99994e-31
-1.46884e-31
-8.48161e-32
-2.99134e-32
-1.71227e-32
-5.78817e-32
-1.3169e-31
-2.15212e-31
-2.60637e-31
-2.43113e-31
-1.71713e-31
-6.99376e-32
6.54327e-33
2.31277e-32
-2.3886e-32
-1.17583e-31
-2.04001e-31
-2.48523e-31
-2.36888e-31
-1.775e-31
-1.1111e-31
-6.19467e-32
-4.64157e-32
-6.12476e-32
-8.51866e-32
-1.10941e-31
-1.30327e-31
-1.48268e-31
-1.68368e-31
-1.80427e-31
-1.78251e-31
-1.46921e-31
-9.41569e-32
-4.05453e-32
-7.68265e-33
-2.63717e-32
-8.47656e-32
-1.66345e-31
-2.35505e-31
-2.48669e-31
-2.13197e-31
-1.27224e-31
-3.61973e-32
1.72371e-32
2.64725e-32
-3.12768e-32
-1.10344e-31
-1.83929e-31
-2.27665e-31
-2.10467e-31
-1.66434e-31
-1.0348e-31
-5.66494e-32
-4.78804e-32
-5.91447e-32
-8.95888e-32
-1.06257e-31
-1.03589e-31
-9.06823e-32
-7.66254e-32
-8.6383e-32
-1.16717e-31
-1.58091e-31
-1.88754e-31
-1.87179e-31
-1.52353e-31
-9.28343e-32
-3.32238e-32
4.7348e-33
1.024e-32
-1.95662e-32
-7.18056e-32
-1.32633e-31
-1.87826e-31
-2.19565e-31
-2.22178e-31
-1.88345e-31
-1.2409e-31
-5.02344e-32
1.46565e-32
4.00544e-32
1.75984e-32
-4.55038e-32
-1.29597e-31
-1.9434e-31
-2.20743e-31
-1.97161e-31
-1.36828e-31
-7.40168e-32
-3.06298e-32
-2.97737e-32
-6.42764e-32
-1.11209e-31
-1.48236e-31
-1.48704e-31
-1.15754e-31
-6.49005e-32
-2.31232e-32
-2.02554e-32
-6.0241e-32
-1.313e-31
-1.98086e-31
-2.24974e-31
-1.94018e-31
-1.13775e-31
-2.43667e-32
3.37655e-32
2.5894e-32
-4.05709e-32
-1.30497e-31
-2.01231e-31
-2.08097e-31
-1.61677e-31
-8.41784e-32
-2.14681e-32
-1.50268e-32
-5.09691e-32
-1.19821e-31
-1.69403e-31
-1.71552e-31
-1.353e-31
-6.43289e-32
-1.48748e-32
-1.44529e-33
-3.0535e-32
-9.7923e-32
-1.53913e-31
-1.90398e-31
-1.8275e-31
-1.35736e-31
-8.04467e-32
-2.45865e-32
-1.64757e-33
-1.02936e-32
-4.19732e-32
-9.06662e-32
-1.28442e-31
-1.52868e-31
-1.56876e-31
-1.39518e-31
-1.13352e-31
-7.82371e-32
-4.49211e-32
-2.2896e-32
-1.61838e-32
-3.52551e-32
-7.48356e-32
-1.21082e-31
-1.5754e-31
-1.6049e-31
-1.26293e-31
-6.79927e-32
-1.05565e-32
1.07341e-32
-1.74671e-32
-8.49636e-32
-1.59896e-31
-1.96762e-31
-1.70333e-31
-8.72612e-32
1.61981e-32
8.35447e-32
7.43469e-32
-1.14141e-32
-1.39674e-31
-2.43498e-31
-2.67467e-31
-1.99408e-31
-6.20601e-32
7.31267e-32
1.42848e-31
1.19171e-31
7.16572e-33
-1.27782e-31
-2.26086e-31
-2.45792e-31
-1.74388e-31
-6.00747e-32
5.12914e-32
1.11169e-31
9.5314e-32
2.83315e-32
-6.07286e-32
-1.26754e-31
-1.41039e-31
-1.06354e-31
-3.97253e-32
2.45451e-32
5.74379e-32
4.95445e-32
1.5114e-32
-2.16938e-32
-3.03539e-32
-1.32408e-34
5.01614e-32
9.85305e-32
1.08893e-31
7.37917e-32
1.78149e-32
-3.12836e-32
-2.99144e-32
2.96744e-32
1.21648e-31
2.13437e-31
2.58231e-31
2.43699e-31
1.92314e-31
1.31704e-31
1.0394e-31
1.23398e-31
1.72437e-31
2.38494e-31
2.90858e-31
3.22713e-31
3.48087e-31
3.64278e-31
3.89509e-31
4.16835e-31
4.36586e-31
4.58986e-31
4.76231e-31
5.0478e-31
5.46397e-31
5.89747e-31
6.33916e-31
6.65632e-31
6.9587e-31
7.41061e-31
8.13056e-31
9.13617e-31
1.0191e-30
1.09839e-30
1.12715e-30
1.11301e-30
1.08788e-30
1.10349e-30
1.19485e-30
1.35555e-30
1.55214e-30
1.71848e-30
1.81638e-30
1.84339e-30
1.83182e-30
1.84919e-30
1.93004e-30
2.08622e-30
2.28714e-30
2.47722e-30
2.63046e-30
2.73308e-30
2.8161e-30
2.91882e-30
3.05928e-30
3.24648e-30
3.44857e-30
3.64045e-30
3.81002e-30
3.95689e-30
4.11505e-30
4.30221e-30
4.52973e-30
4.7916e-30
5.05301e-30
5.30009e-30
5.51847e-30
5.71992e-30
5.93968e-30
6.19236e-30
6.50043e-30
6.84797e-30
7.20307e-30
7.54604e-30
7.84468e-30
8.11693e-30
8.38773e-30
8.68769e-30
9.05918e-30
9.49016e-30
9.96769e-30
1.04482e-29
1.08792e-29
1.12459e-29
1.15511e-29
1.17982e-29
1.22058e-29
1.27232e-29
1.40681e-29
1.64772e-29
2.00795e-29
2.69439e-29
2.96157e-29
3.23927e-29
1.53119e-29
-2.74467e-29
-7.88256e-29
-1.84419e-28
-1.75057e-28
-1.14257e-28
1.73774e-28
8.18019e-28
1.1834e-27
1.82591e-27
1.06434e-27
-7.53502e-28
-3.02876e-27
-7.53511e-27
-7.20547e-27
-5.92309e-27
1.75631e-27
1.68844e-26
2.2676e-26
3.30569e-26
1.66564e-26
-1.36029e-26
-4.09992e-26
-9.04875e-26
-7.13143e-26
-4.21867e-26
3.15784e-26
1.54633e-25
1.62744e-25
1.92006e-25
5.43195e-26
-1.45592e-25
-2.41554e-25
-4.15703e-25
-2.36516e-25
-3.1635e-26
2.19162e-25
5.89204e-25
4.55165e-25
3.83043e-25
-3.70757e-26
-5.43994e-25
-5.80041e-25
-7.54244e-25
-2.5457e-25
2.23636e-25
5.06856e-25
9.15301e-25
5.06867e-25
2.23652e-25
-2.54556e-25
-7.54239e-25
-5.80046e-25
-5.44006e-25
-3.70897e-26
3.83034e-25
4.55163e-25
5.89208e-25
2.1917e-25
-3.16292e-26
-2.36514e-25
-4.15705e-25
-2.41559e-25
-1.45597e-25
5.43158e-26
1.92004e-25
1.62744e-25
1.54633e-25
3.15787e-26
-4.21869e-26
-7.13149e-26
-9.04881e-26
-4.10001e-26
-1.36037e-26
1.66555e-26
3.30559e-26
2.26751e-26
1.68835e-26
1.75559e-27
-5.92372e-27
-7.20601e-27
-7.5356e-27
-3.02927e-27
-7.54029e-28
1.06376e-27
1.8253e-27
1.18278e-27
8.17414e-28
1.73242e-28
-1.14708e-28
-1.75406e-28
-1.84701e-28
-7.91061e-29
-2.77711e-29
1.48822e-29
3.1881e-29
2.90719e-29
2.64416e-29
1.97055e-29
1.62399e-29
1.39512e-29
1.2654e-29
1.20961e-29
1.1604e-29
1.12463e-29
1.08651e-29
1.04826e-29
1.00901e-29
9.70708e-30
9.34266e-30
9.0108e-30
8.7038e-30
8.39813e-30
8.07272e-30
7.71318e-30
7.32854e-30
6.95423e-30
6.61721e-30
6.34408e-30
6.12797e-30
5.9394e-30
5.75249e-30
5.53129e-30
5.27788e-30
4.99986e-30
4.7176e-30
4.46262e-30
4.24082e-30
4.06585e-30
3.92629e-30
3.80227e-30
3.67669e-30
3.52246e-30
3.33483e-30
3.12371e-30
2.91159e-30
2.73272e-30
2.60952e-30
2.53569e-30
2.49261e-30
2.43701e-30
2.33388e-30
2.18419e-30
1.99461e-30
1.81633e-30
1.68552e-30
1.61266e-30
1.60236e-30
1.6027e-30
1.58285e-30
1.51541e-30
1.3873e-30
1.23803e-30
1.09314e-30
9.9419e-31
9.62833e-31
9.80872e-31
1.02417e-30
1.04337e-30
1.00159e-30
8.93475e-31
7.39133e-31
5.88781e-31
4.97441e-31
4.89785e-31
5.57666e-31
6.54035e-31
7.13723e-31
6.97473e-31
5.95867e-31
4.47412e-31
3.09756e-31
2.3079e-31
2.31385e-31
2.8876e-31
3.65405e-31
4.13205e-31
4.12342e-31
3.63542e-31
2.85094e-31
2.13148e-31
1.59147e-31
1.42533e-31
1.53064e-31
1.75876e-31
2.0258e-31
2.0404e-31
1.90716e-31
1.56014e-31
1.16587e-31
9.81848e-32
9.11138e-32
1.13053e-31
1.32098e-31
1.32133e-31
1.14568e-31
6.36249e-32
2.27775e-32
1.07205e-33
1.0406e-32
5.76538e-32
9.8819e-32
1.2673e-31
1.19229e-31
7.7467e-32
3.50294e-32
-3.46667e-33
-1.69741e-32
-1.35537e-32
-1.33122e-32
-1.18633e-32
-1.59506e-32
-4.78671e-33
3.49835e-32
8.66663e-32
1.35702e-31
1.37639e-31
7.38925e-32
-3.44185e-32
-1.55161e-31
-2.14445e-31
-1.7894e-31
-5.73201e-32
1.12398e-31
2.33752e-31
2.5638e-31
1.60421e-31
-2.3344e-32
-1.93657e-31
-2.87621e-31
-2.50731e-31
-9.77349e-32
8.5351e-32
2.31054e-31
2.56462e-31
1.58277e-31
-6.99654e-33
-1.7561e-31
-2.51873e-31
-2.18434e-31
-9.76804e-32
5.74747e-32
1.57965e-31
1.8039e-31
1.17437e-31
6.3345e-33
-8.82527e-32
-1.4647e-31
-1.4292e-31
-9.86828e-32
-4.3268e-32
1.40965e-32
4.64315e-32
6.38182e-32
6.28545e-32
4.21055e-32
1.43091e-32
-2.70021e-32
-6.29034e-32
-8.8835e-32
-9.80201e-32
-8.43478e-32
-5.81149e-32
-1.87936e-32
1.85822e-32
5.09837e-32
6.63144e-32
5.83722e-32
3.07592e-32
-1.96035e-32
-6.5602e-32
-1.02605e-31
-1.12304e-31
-8.8437e-32
-5.28149e-32
-1.48056e-33
3.39456e-32
5.15292e-32
5.37635e-32
2.80704e-32
5.14584e-34
-3.71103e-32
-7.05129e-32
-8.50042e-32
-8.82226e-32
-6.23919e-32
-2.53895e-32
1.37839e-32
4.53496e-32
4.85733e-32
3.27694e-32
-2.44729e-33
-4.11968e-32
-6.77619e-32
-7.88789e-32
-6.69774e-32
-4.0926e-32
-8.43257e-33
1.93887e-32
3.27559e-32
2.70225e-32
6.84608e-33
-1.78871e-32
-3.68424e-32
-3.69583e-32
-2.82873e-32
-1.43981e-32
-9.87998e-33
-2.27561e-32
-3.36917e-32
-4.0437e-32
-2.01651e-32
1.93612e-32
5.28502e-32
6.71307e-32
3.26821e-32
-2.85596e-32
-9.06526e-32
-1.20619e-31
-8.82896e-32
-1.72717e-32
6.76754e-32
1.16251e-31
1.02199e-31
3.81199e-32
-5.12057e-32
-1.09673e-31
-1.14903e-31
-6.43878e-32
1.59927e-32
7.57974e-32
9.38154e-32
5.65636e-32
-9.38139e-33
-6.40959e-32
-8.45321e-32
-5.23055e-32
7.10172e-33
6.26996e-32
8.74859e-32
6.03892e-32
2.49186e-33
-6.15752e-32
-1.00875e-31
-8.96964e-32
-4.01434e-32
3.13761e-32
9.40772e-32
1.16629e-31
9.90139e-32
4.30897e-32
-2.84571e-32
-8.44972e-32
-1.15451e-31
-1.04258e-31
-5.81969e-32
4.54046e-33
7.3894e-32
1.1924e-31
1.31514e-31
1.04333e-31
3.73834e-32
-4.06627e-32
-1.10966e-31
-1.41887e-31
-1.16346e-31
-4.48802e-32
5.38794e-32
1.34851e-31
1.64995e-31
1.30879e-31
4.2381e-32
-5.74183e-32
-1.25854e-31
-1.31694e-31
-7.14045e-32
2.2863e-32
1.07413e-31
1.43347e-31
1.12911e-31
3.71253e-32
-4.74682e-32
-1.00099e-31
-9.12101e-32
-3.39573e-32
4.84951e-32
1.13808e-31
1.25965e-31
9.17916e-32
1.78359e-32
-5.06075e-32
-7.90827e-32
-6.63949e-32
-4.05348e-33
6.09859e-32
1.03919e-31
1.12519e-31
7.01588e-32
1.90532e-32
-2.92068e-32
-5.15359e-32
-3.19027e-32
1.25562e-33
4.63991e-32
7.72087e-32
8.28519e-32
7.47878e-32
5.04507e-32
2.85107e-32
1.54962e-32
8.32814e-33
1.04343e-32
1.29436e-32
1.12027e-32
1.24481e-32
1.26344e-32
2.25189e-32
4.54286e-32
6.94335e-32
9.86843e-32
1.07344e-31
9.34713e-32
5.84482e-32
4.84492e-34
-4.30596e-32
-6.87595e-32
-5.37854e-32
-1.70024e-34
6.41015e-32
1.27531e-31
1.51214e-31
1.36154e-31
8.44769e-32
2.0958e-32
-2.79223e-32
-4.83047e-32
-2.68833e-32
3.96396e-33
5.28939e-32
7.34456e-32
7.42461e-32
6.73925e-32
2.27413e-32
1.35071e-32
-1.88087e-32
-2.48599e-32
-4.78311e-33
)
;

boundaryField
{
    left
    {
        type            calculated;
        value           uniform 0;
    }
    right
    {
        type            calculated;
        value           uniform 0;
    }
    empty
    {
        type            empty;
        value           nonuniform List<scalar> 0();
    }
}


// ************************************************************************* //
