/*--------------------------------*- C++ -*----------------------------------*\
| =========                 |                                                 |
| \\      /  F ield         | OpenFOAM: The Open Source CFD Toolbox           |
|  \\    /   O peration     | Version:  2106                                  |
|   \\  /    A nd           | Website:  www.openfoam.com                      |
|    \\/     M anipulation  |                                                 |
\*---------------------------------------------------------------------------*/
FoamFile
{
    version     2.0;
    format      ascii;
    arch        "LSB;label=32;scalar=64";
    class       volScalarField;
    location    "0.155";
    object      p;
}
// * * * * * * * * * * * * * * * * * * * * * * * * * * * * * * * * * * * * * //

dimensions      [0 2 -2 0 0 0 0];

internalField   nonuniform List<scalar> 
11200
(
151.682974289
148.75437222
147.640520357
147.113187484
146.745855646
146.451074711
146.189427946
145.940886123
145.696363966
145.451291785
145.2029724
144.949651088
144.690095814
144.42337097
144.148709668
143.865438477
143.572931573
143.27058297
142.957793854
142.633976152
142.298506049
141.950734548
141.590003312
141.215644492
140.826972512
140.423286056
140.003868911
139.567990634
139.114907305
138.643862146
138.154086103
137.644798369
137.115206505
136.564506639
135.99188413
135.39651472
134.777564443
134.134189828
133.465538276
132.770748503
132.048950848
131.299267485
130.520812617
129.712692558
128.874005677
128.003842162
127.101283576
126.165402107
125.195259465
124.189905319
123.148375159
122.069687462
120.95283997
119.796804881
118.600522677
117.362894284
116.082771153
114.75894274
113.39012073
111.974919173
110.511829472
108.999188824
107.435139858
105.81758181
104.144104773
102.41190367
100.617668118
98.757438096
96.826409491
94.8186676318
92.7268236883
90.541518985
88.2505549579
85.8377473581
83.2810148655
80.5487072851
77.59324246
74.3420917
70.6417529724
65.8790114255
149.889932573
148.531758098
147.740785585
147.240769618
146.849779247
146.525894119
146.241369931
145.976764171
145.721272318
145.468745935
145.215357675
144.958593916
144.696717583
144.428452179
144.152797244
143.868917941
143.576076865
143.273591193
142.960802497
142.637048889
142.301680231
141.954020974
141.593427494
141.219231612
140.83073732
140.427237583
140.008013353
139.572332366
139.119449413
138.648606751
138.159034365
137.649949944
137.120558986
136.570061279
135.99764414
135.402483407
134.783744847
134.140584939
133.472151101
132.777582118
132.056008475
131.306552561
130.528328895
129.720444222
128.881997476
128.01207959
127.109773075
126.174151334
125.204277603
124.199203453
123.157966755
122.079588952
120.963071473
119.807391089
118.611493959
117.374288068
116.094633628
114.771330964
113.403105268
111.988587491
110.526290498
109.014579081
107.451629611
105.835379388
104.163460999
102.433132764
100.641179444
98.7837637861
96.8562464119
94.8529426113
92.766783491
90.5888124113
88.3074823293
85.9076575338
83.3689432654
80.6628323328
77.7485262385
74.5681810626
71.0189830819
66.9058853671
148.894742386
148.240541592
147.688184828
147.250565442
146.878939532
146.556835239
146.267732364
145.997495014
145.737028156
145.480542892
145.224154205
144.965180362
144.701709287
144.43231398
144.15587334
143.871458725
143.578260496
143.275540062
142.962599136
142.638760855
142.303363169
141.95576653
141.595226854
141.221090553
140.832665506
140.42924211
140.010099011
139.57450286
139.121708135
138.6509573
138.161481163
137.652499559
137.123221759
136.572840376
136.000537733
135.405491652
134.78686918
134.143827279
133.475514213
132.781069629
132.059624865
131.310303241
130.532220374
129.724484317
128.886195576
128.016446994
127.114323416
126.178901092
125.209246747
124.204416251
123.163452758
122.085384175
120.969219843
119.813946215
118.618521303
117.381867578
116.102862967
114.780329588
113.413019589
111.999597149
110.538615324
109.028487299
107.467449462
105.853531446
104.184496433
102.457751939
100.670256005
98.8184098889
96.8978993622
94.9034857506
92.8287192442
90.6655367045
88.4038428364
86.03072043
83.5294461108
80.8781548857
78.04886252
75.009932192
71.7253561548
68.1720480216
148.344981248
147.981599524
147.581700443
147.212708274
146.875089231
146.566983834
146.281616953
146.010908911
145.748532323
145.489860188
145.231474448
144.970843534
144.706067583
144.435679299
144.158502579
143.873554888
143.579979897
143.277001415
142.963892319
142.639952695
142.304491623
141.956818961
141.596293541
141.222192093
140.833803973
140.430421462
140.011322958
139.575773882
139.123027601
138.65232559
138.162897536
137.653961528
137.124724881
136.574385814
136.002134047
135.407144339
134.78858412
134.145611709
133.477374203
132.783011643
132.061656206
131.312432228
130.534456755
129.726839697
128.888683884
128.019085059
127.117131642
126.181904276
125.212475037
124.207906249
123.167248891
122.089540449
120.973801975
119.819034249
118.624212869
117.388282042
116.110146703
114.788662389
113.422622257
112.010740888
110.551636152
109.043811344
107.485605245
105.875159665
104.210372321
102.488844156
100.707799845
98.8639873817
96.9535537274
94.9718889247
92.9134357978
90.7714644732
88.5377424976
86.2022263171
83.7528239246
81.175431675
78.4552949851
75.5826922952
72.561205088
69.427986466
148.01093337
147.779137499
147.477724034
147.166745191
146.861903232
146.569876753
146.2908975
146.021767221
145.758802301
145.498712586
145.238737644
144.976640036
144.710627218
144.439250091
144.16131194
143.875795784
143.581808984
143.278542333
142.965240522
142.641180958
142.305658779
141.957977672
141.597441271
141.223339048
140.834973802
140.431629197
140.012578404
139.577084431
139.124399294
138.65376389
138.164407965
137.655550268
137.126398651
136.576149788
136.003989782
135.409094952
134.790631072
134.147755502
133.479619165
132.785362611
132.064120217
131.315018716
130.537177642
129.729709698
128.891720981
128.022311114
127.120573138
126.185593235
125.216450125
124.212214649
123.171948247
122.09470101
120.979509353
119.825392838
118.631349985
117.396352716
116.11933879
114.799203669
113.434790351
112.024877677
110.568164494
109.063238554
107.508562705
105.902442525
104.242984493
102.528046864
100.755182152
98.9215684055
97.0239260729
95.0584208598
93.0205559163
90.9050663322
88.705843095
86.415966314
84.0280130118
81.5349706704
78.9326385025
76.2254539697
73.434775165
70.6113024478
147.807540945
147.631638508
147.390442736
147.123115272
146.845925977
146.569284724
146.297591451
146.031085634
145.768315723
145.507301634
145.246008447
144.982569099
144.715358108
144.442984628
144.164255747
143.878133758
143.583696614
143.280104922
142.966575956
142.642363932
142.306745466
141.959008692
141.598444208
141.224342295
140.835992367
140.432673663
140.013656703
139.578202449
139.125561423
138.654973283
138.165666802
137.656859911
137.127759903
136.577563582
136.005457661
135.410619416
134.79221731
134.149411101
133.481351974
132.787184103
132.066043551
131.317057526
130.539347542
129.732029003
128.894211301
128.024998576
127.123489516
126.188777261
125.219949227
124.216086166
123.176261518
122.099540212
120.98497672
119.831612606
118.638473315
117.404564253
116.128866574
114.810329384
113.447860277
112.040314266
110.586472576
109.085041943
107.53463923
105.933748745
104.280703368
102.57365329
100.810527731
98.9889931222
97.1064096337
95.159791575
93.1457830067
91.0606722919
88.9004933244
86.6613048547
84.3398217379
81.9346925394
79.4489866337
76.8948634688
74.2992820875
71.709362686
147.684424215
147.528816236
147.322513505
147.085949908
146.830472749
146.567190838
146.302574731
146.039062771
145.776925727
145.515335761
145.252958839
144.988318447
144.719984801
144.446649347
144.167139904
143.880408886
143.585511367
143.281581517
142.967811326
142.643432895
142.30770441
141.959899455
141.599299198
141.2251861
140.836841272
140.43353901
140.014546977
139.579123947
139.126518927
138.655970718
138.166707697
137.657947767
137.128898459
136.578757268
136.006712102
135.411941187
134.79361347
134.150889461
133.482921464
132.788853327
132.06782018
131.31895309
130.541378058
129.73421464
128.896577257
128.027575356
127.126313994
126.191894065
125.223412354
124.219961219
123.180628149
122.104495419
120.990638688
119.838125356
118.646012301
117.413342637
116.139141171
114.822411068
113.462129871
112.057233698
110.606623061
109.109138455
107.563550728
105.968547373
104.322716641
102.624529392
100.872321444
99.0642790949
97.1984328494
95.2726685745
93.2847726002
91.2325392098
89.1139903644
86.9277950007
84.6740241523
82.3554393915
79.9795972326
77.5621095359
75.1298719394
72.7222726323
147.610344585
147.460334155
147.273577735
147.057471091
146.817763362
146.564940067
146.306300521
146.045559512
145.784189605
145.522264405
145.259043044
144.993402088
144.724101012
144.449918567
144.169711229
143.882429149
143.587110829
143.282868942
142.968873945
142.644338672
142.308505158
141.960634063
141.599996448
141.225866781
140.837521189
140.434229107
140.015255412
139.579856829
139.127281008
138.65676595
138.167539635
137.658819893
137.129814437
136.579721025
136.007727749
135.413013314
134.794747518
134.152091443
133.484198205
132.790214113
132.069280684
131.320531594
130.543093554
129.736089495
128.898638422
128.029855634
127.128853296
126.194740899
125.226625619
124.223612716
123.184805594
122.109305223
120.996210002
119.844615051
118.653611119
117.422283141
116.149708397
114.834953883
113.477069912
112.075090842
110.628024134
109.134849897
107.594513809
106.005919172
104.367921676
102.67932603
100.938886958
99.1453186759
97.2973201664
95.3936270274
93.4331080547
91.4149335823
89.3388604787
87.2057042896
85.0180829502
82.7815373224
80.5061159299
78.2084428662
75.9132239301
73.6525019157
147.56806825
147.418620299
147.242204048
147.038464814
146.808930808
146.563220776
146.308858789
146.050218041
145.789508518
145.527411197
145.263610169
144.99724756
144.72723183
144.452414321
144.171678284
143.883975521
143.588333995
143.283851171
142.969681709
142.645024049
142.30910803
141.961184425
141.600516569
141.226373834
140.838025202
140.43473979
140.015779458
139.580399211
139.127845727
138.657356449
138.16815909
137.659471476
137.130501529
136.580447402
136.008497752
135.413832103
134.795621322
134.153028171
133.485208117
132.791310088
132.070474231
131.321837423
130.544531463
129.737683819
128.900418572
128.031857231
127.13111954
126.197324244
125.229589786
124.22703493
123.188779345
122.113944139
121.001652244
119.851028612
118.661200217
117.431295827
116.160445463
114.847779525
113.492430083
112.093527733
110.650201362
109.161577458
107.626780174
106.044932782
104.415162224
102.736608294
101.008440694
99.2298881447
97.4002882948
95.5191686907
93.5863758991
91.6022776255
89.5680729891
87.4862574534
85.3612834556
83.200456315
81.0150416883
78.8214742892
76.6418279891
74.5023186754
147.548791819
147.398913707
147.226950136
147.029013732
146.804451163
146.562330543
146.310193518
146.052682358
145.792352621
145.530188428
145.266094502
144.999355089
144.728960585
144.453803499
144.172783159
143.884853369
143.589037074
143.284423896
142.970160147
142.64543657
142.309476439
141.961525192
141.600841926
141.226692748
140.838345142
140.435065665
140.016115201
139.580748036
139.128210422
138.657739682
138.168563516
137.65989995
137.130957276
136.580934197
136.009020109
135.41439549
134.796232378
134.153694907
133.485939842
132.792116907
132.071371083
131.322841697
130.545663766
129.738969043
128.901886937
128.033545459
127.133072231
126.199595543
125.232245427
124.230154748
123.192460318
122.118304028
121.00683401
119.857205808
118.668583599
117.440141487
116.171064884
114.860551584
113.507814095
112.112085171
110.672611174
109.188665627
107.659552297
106.084613478
104.46324338
102.794908012
101.079175074
99.3157576648
97.5045816995
95.6458839362
93.7403589796
91.7893760317
89.7952833941
87.7618377896
85.6947529865
83.602385251
81.4964753737
79.392802691
77.3110888173
75.2732969272
147.548794391
147.398929755
147.226977125
147.029049946
146.804495832
146.562382829
146.3102525
146.052747209
145.792422644
145.530263048
145.266173256
144.999437619
144.729046624
144.453892861
144.172875731
143.884949105
143.589135979
143.284526028
142.970265618
142.64554554
142.309589136
141.961641916
141.600963071
141.226818826
140.838476825
140.435203701
140.016260511
139.580901758
139.128373948
138.657914562
138.168751762
137.660104016
137.131180136
136.58117946
136.00929215
135.414699593
134.796574922
134.154083615
133.486384208
132.792629004
132.071964915
131.323534275
130.546475845
129.739925873
128.903019183
128.03489035
127.134674971
126.201511016
125.234540261
124.232909821
123.195773794
122.122295052
121.011647192
119.863016671
118.67560516
117.448632197
116.181338239
114.872987999
113.522874898
112.130326373
110.694714394
109.215454712
107.692025949
106.123982546
104.510974052
102.852771948
101.149308845
99.4007357282
97.6074996533
95.7704551216
93.8910673372
91.9715577236
90.0150815222
88.0262730427
86.0116531283
83.9801334741
81.9435167338
79.9168450149
77.9180520641
75.9662666903
147.568076019
147.418668816
147.242285619
147.038574203
146.80906567
146.563378405
146.309036378
146.050413129
145.789719029
145.527635413
145.263846712
144.997495363
144.7274901
144.452682509
144.171956056
143.884262735
143.588630678
143.284157506
142.969998028
142.64535084
142.309445968
141.9615344
141.600879742
141.226751839
140.838419786
140.435153244
140.016214514
139.580859189
139.128334668
138.657879232
138.168721676
137.660081105
137.131167
136.581179426
136.009309377
135.414739214
134.796643238
134.154188331
133.486534703
132.792836679
132.072243602
131.323900823
130.546950761
129.740534072
128.903790926
128.035862383
127.135891912
126.203027036
125.236421109
124.235235283
123.198640681
122.125820814
121.015974289
119.868317869
118.682089939
117.456554507
116.191005888
114.884774133
113.537230848
112.147799927
110.715965918
109.241285899
107.723401228
106.162063263
104.557158448
102.908747611
101.217128887
99.4828571091
97.7068304738
95.8904264807
94.0355879348
92.1450812381
90.2228458367
88.2741365246
86.305953294
84.327459883
82.3503448924
80.3890358589
78.4602801207
76.5815554566
147.610357734
147.460416262
147.273715536
147.057655493
146.817990254
146.565204765
146.306598261
146.045886157
145.784541691
145.522639079
145.25943803
144.993815625
144.724531798
144.450365706
144.170174182
143.882907692
143.587605023
143.283379101
142.969400629
142.644882703
142.309067678
141.961216554
141.600600708
141.226495347
140.838177158
140.434916142
140.015978003
139.580620433
139.128092256
138.65763289
138.168472036
137.659829606
137.130915845
136.580931601
136.009068716
135.414510529
134.796432488
134.154002847
133.486383442
132.792730561
132.072195933
131.323927791
130.547072055
129.740773639
128.904177866
128.036432056
127.136687265
126.204100207
125.237835374
124.237067415
123.200983815
122.128787892
121.019702238
119.872972645
118.687872625
117.463708664
116.19982641
114.895618053
113.550530656
112.164075143
110.735843842
109.265523064
107.752914945
106.197961488
104.600771152
102.961652629
101.281152004
99.5601595532
97.7999864836
96.0024429133
94.1699810141
92.3058659644
90.4144049969
88.5012040646
86.573487236
84.6404334608
82.7134951761
80.8066377388
78.9360210405
77.1185968384
147.684443112
147.528934072
147.322710606
147.08621272
146.830795075
146.567565803
146.302995489
146.039523465
145.777421497
145.515862643
145.253513684
144.988898831
144.720588941
144.447276017
144.167788371
143.881078852
143.586202913
143.282295072
142.968547644
142.64419308
142.308489998
141.960712522
141.600142378
141.226062784
140.837755508
140.43449588
140.015552663
139.580185921
139.127646259
138.657174448
138.168001257
137.659347491
137.130424205
136.580433038
136.008566663
135.414009349
134.795937622
134.153521029
133.485922969
132.792301614
132.07181095
131.323601918
130.546823719
129.740625239
128.90415663
128.036571075
127.137026738
126.204688938
125.238732595
124.238344999
123.202728926
122.131106198
121.022721798
119.876848592
118.6927928
117.469900365
116.207564463
114.905234495
113.56242681
112.178737487
110.753856282
109.28758626
107.77986587
106.230793146
104.640665917
103.010025471
101.33970261
99.6308777283
97.885162093
96.104699455
94.2922884355
92.4515295883
90.5870035737
88.704485659
86.8112072431
84.9161553519
83.0304161402
81.1675721509
79.3436561688
77.5761115166
147.807566255
147.631795771
147.390704326
147.123462267
146.846349605
146.569775608
146.298140521
146.031685276
145.768959703
145.507984916
145.246727061
144.983320011
144.716139092
144.443794164
144.165092929
143.878998204
143.584588387
143.281024459
142.967524013
142.643341576
142.307754028
141.96005009
141.599522908
141.225464123
140.837161914
140.433896686
140.014940626
139.579556348
139.126996364
138.656502867
138.167307724
137.658632643
137.129689484
136.579680664
136.00779967
135.413231637
134.795154032
134.152737519
133.485146858
132.791541913
132.071078763
131.322910882
130.546190524
129.74007024
128.903704597
128.036252104
127.136877364
126.204753497
125.239064878
124.239010248
123.203806209
122.132691306
121.024930735
119.879821764
118.696700045
117.474947079
116.21399896
114.913356536
113.57259747
112.191390883
110.769514779
109.306876598
107.803538161
106.259745596
104.675964439
103.052922899
101.391664576
99.6936118819
97.9606389009
96.1951581982
94.4002241009
92.5796544798
90.7381718586
88.8815660464
87.0168974287
85.1527586779
83.2996645867
81.4707005494
79.6819106566
77.9519934198
148.010965786
147.779339054
147.478056596
147.167183368
146.862434993
146.570489795
146.291580379
146.022510566
145.759598572
145.499555771
145.239623052
144.977564121
144.711587426
144.440244739
144.162340114
143.87685724
143.582904022
143.279671628
142.966404923
142.642381527
142.306897057
141.959254791
141.598759281
141.224711274
140.836404184
140.433123488
140.014144818
139.578733258
139.126143122
138.655617922
138.16639053
137.657683473
137.12870935
136.578671311
136.006763613
135.41217226
134.794075717
134.151645749
133.484048332
132.790444681
132.069992464
131.321847159
130.5451636
129.739097529
128.902807411
128.035456481
127.136215047
126.204263096
125.238793292
124.239014458
123.20415535
122.133469221
121.026239026
119.881783465
118.69946405
117.478693214
116.21894332
114.919759526
113.580772794
112.201715724
110.782441505
109.32294645
107.823396752
106.28416004
104.705842913
103.089334756
101.435858469
99.7470305652
98.0249295428
96.2721727517
94.492001142
92.6883720639
90.8660582171
89.0307546236
87.1892097164
85.3494129749
83.5209796175
81.7160585468
79.9501650953
78.2431572176
148.3450208
147.981849049
147.582106494
147.213238024
146.875726693
146.567713302
146.2824245
146.011783466
145.749465131
145.490844369
145.232504706
144.971915929
144.707179369
144.436828817
144.159689216
143.874779071
143.581243113
143.278306139
142.965241529
142.641350255
142.305946622
141.958347045
141.597867483
141.22381524
140.835490135
140.432181937
140.013169376
139.577719824
139.125089144
138.654521898
138.165251759
137.656501913
137.127485465
136.577405991
136.005458188
135.410828675
134.792696806
134.150235375
133.482611506
132.788987964
132.068524458
131.32037814
130.543705958
129.737666274
128.901420713
128.034136331
127.134988086
126.203161656
125.237856653
124.238290223
123.203700909
122.133353955
121.026546809
119.882615624
118.700942905
117.48096662
116.222191258
114.924198865
113.586664144
112.209371863
110.792237066
109.335328852
107.838898384
106.303411634
104.729587715
103.118443245
101.471342901
99.7900564868
98.0768213438
96.3344092195
94.5661951668
92.7762250518
90.9692734534
89.1508894657
87.327433425
85.5061155423
83.6952267566
81.9051314392
80.1490271633
78.4455297393
148.894793901
148.240853252
147.688674389
147.251192094
146.879683604
146.557677745
146.268657162
145.998489565
145.73808265
145.481649631
145.225307212
144.966375072
144.702942299
144.433582871
144.157176561
143.872795645
143.579631751
143.276948419
142.96404974
142.640260269
142.304911861
141.95733427
141.59684855
141.222774496
140.83441667
140.431068083
140.012010007
139.576511666
139.123830402
138.653211762
138.163890143
137.655089345
137.126023047
136.575895368
136.0039015
135.40922825
134.791054243
134.148553306
133.480893563
132.787238452
132.066748146
131.318581836
130.541898458
129.735858526
128.899626235
128.032371735
127.133273687
126.201522166
125.236321983
124.236896556
123.202492657
122.132385088
121.025882736
119.882335499
118.701142323
117.481760487
116.223716747
114.926621538
113.590183165
112.21422612
110.798712386
109.34376638
107.849704074
106.317066719
104.746659722
103.139596691
101.497349075
99.8218004007
98.1153037567
96.3807445675
94.6215957381
92.8419667014
91.0466291251
89.2410101182
87.4311237045
85.6233514583
83.8243412952
82.0416279933
80.2822946498
78.5549378847
149.890031475
148.532215198
147.741467626
147.241623813
146.85078249
146.527025635
146.242612735
145.978105203
145.72270138
145.470254981
145.216940338
144.960245096
144.698433036
144.430228111
144.154629913
143.870803262
143.578009892
143.275565289
142.962812227
142.63910208
142.303775236
141.956182341
141.595671416
141.221559089
140.83315369
140.429751604
140.010635758
139.575074377
139.122326437
138.651639027
138.162247167
137.653374996
137.124236474
136.574036007
136.001969163
135.407223611
134.788980599
134.146413326
133.478689878
132.784974479
132.06442849
131.316211759
130.539484201
129.73340771
128.897148199
128.029877897
127.130777988
126.199041655
125.23387751
124.23451344
123.20020133
122.130222325
121.023892996
119.880572511
118.699671085
117.480659986
116.223083047
114.926569142
113.590849376
112.215775499
110.801341682
109.347709984
107.855239934
106.324522686
104.756420223
103.152109694
101.513132498
99.8414459146
98.1394775748
96.4102010346
94.6571637564
92.884533879
91.0971159569
89.3003272923
87.5000643173
85.7021914731
83.9122353124
82.1349499828
80.3651436988
78.573098611
151.683139975
148.755041789
147.641512997
147.114441069
146.747339954
146.452765125
146.191305902
145.942938076
145.698580023
145.453664898
145.205497855
144.952326195
144.692919789
144.426344971
144.151836908
143.86872428
143.576383279
143.274209273
142.961599705
142.63794708
142.302646217
141.955057141
141.59451095
141.220342437
140.831869469
140.428392853
140.009198769
139.573562173
139.120740793
138.649980183
138.160515382
137.651570684
137.122360115
136.572088118
135.999950263
135.405133981
134.786819485
134.144180745
133.476386545
132.782601505
132.061987379
131.31370458
130.536913757
129.730777624
128.894463028
128.027143313
127.128000997
126.196230844
125.231043326
124.23166866
123.197361537
122.12740646
121.021123983
119.877878027
118.697084426
117.478220946
116.220839156
114.924578082
113.589180485
112.214511803
110.800582381
109.347573426
107.855867008
106.326080792
104.759107456
103.156159262
101.51881779
99.8490910764
98.1494740771
96.4229733192
94.6731939655
92.9043732457
91.1214006622
89.3297961543
87.5356106604
85.7453545884
83.9654691958
82.2007991202
80.4310529059
78.5314823787
58.4810425116
54.9294984012
52.5388292961
50.58292709
48.9131306916
47.4590500417
46.1764292477
45.0352623483
44.0135880541
43.0944219575
42.2641961377
41.5118305419
40.8281320347
40.2053786187
39.6370142364
39.1174163118
38.6417168272
38.2056631047
37.8055113178
37.4379436535
37.1000050021
36.789052654
36.5027166039
36.2388660977
35.9955821154
35.7711329495
35.5639533316
35.372625916
35.1958648474
35.0325017546
34.881472467
34.7418062037
34.6126152649
34.4930865686
34.3824740363
34.2800922044
34.1853100921
34.0975476028
34.0162798377
33.9410742531
33.8715855354
33.8073335546
33.7478578956
33.692791095
33.6418059562
33.5945959583
33.5508742043
33.5103740643
33.4728481263
33.4380670644
33.4058177831
33.375902999
33.3481392321
33.3223567519
33.2983976445
33.2761155987
33.2553753457
33.2360509055
33.2180264009
33.2011934044
33.1854531162
33.1707128115
33.1568874593
33.1438980278
33.131672707
33.1201437944
33.1092503907
33.0989348265
33.0891448646
33.0798331213
33.0709546538
33.0624696303
33.0543406366
33.0465331109
33.0390161943
33.0317616652
33.0247540891
33.01796412
33.0113548582
33.0049424462
32.9986675502
32.9925281832
32.9865104758
32.9806210933
32.9748403489
32.9691419082
32.963512586
32.9579425542
32.952422297
32.9469434852
32.9414985206
32.936079669
32.930679934
32.9252926276
32.9199111074
32.9145296657
32.90914265
32.9037445685
32.8983302305
32.8928944846
32.8874316638
32.8819368881
32.8764054848
32.8708325807
32.8652129791
32.8595417304
32.8538140777
32.8480253101
32.8421700478
32.8362425047
32.8302370249
32.8241488136
32.8179736538
32.8117060881
32.8053412836
32.7988737881
32.7922992778
32.7856132237
32.7788124339
32.7718946609
32.764859013
32.7577046314
32.7504341206
32.7430541405
32.7355696268
32.7279961623
32.720350337
32.7126586463
32.7049539178
32.6972821596
32.6897000768
32.6822798896
32.6751119415
32.6683042399
32.6619812889
32.6562936491
32.6514121236
32.6475239606
32.644820666
32.6434543464
32.643454227
32.6444941556
32.6454159107
32.6433480185
32.6323935226
32.6019910658
32.5347819422
32.4043162431
32.1686401566
31.7602643319
31.0784462545
29.9975526436
28.3972850983
26.1987191901
23.3832972168
20.0056655129
16.1726968149
11.8297649259
6.69937366378
1.59976975563
61.6629791979
57.6100762907
54.8989872491
52.7483113938
50.9487298861
49.4016247442
48.0485035798
46.8518310645
45.7851489412
44.8285945681
43.966677832
43.1869901794
42.4793956446
41.8354884428
41.2482066965
40.7115477825
40.2203526857
39.7701432313
39.3569975354
38.9774557612
38.628448043
38.3072371194
38.0113755147
37.738666472
37.4871362645
37.2550049989
37.0406671673
36.84266847
36.6596927487
36.4905421876
36.3341300065
36.1894623947
36.0556353833
35.9318193183
35.8172573125
35.7112519065
35.613165518
35.522406885
35.4384290584
35.3607035161
35.2887027046
35.2220119244
35.1603041836
35.1031925862
35.0503162073
35.0013542231
34.9560131379
34.9140177557
34.8751143168
34.8390647431
34.8056500858
34.7746647284
34.7459202009
34.7192385022
34.694457493
34.6714238952
34.6499982103
34.6300485866
34.6114555384
34.5941051691
34.5778953938
34.5627287711
34.5485174091
34.535178247
34.5226375991
34.5108233797
34.4996733012
34.4891262346
34.4791310516
34.469634676
34.4605905295
34.4519575961
34.4436991123
34.4357783535
34.4281636559
34.4208199546
34.4137150346
34.4068262635
34.4001257708
34.3936195906
34.3872636724
34.3810442557
34.3749477491
34.3689472297
34.3630432584
34.3572248255
34.3514812349
34.3457993304
34.3401718469
34.3345898642
34.3290470889
34.3235327152
34.3180425012
34.3125676541
34.3071041347
34.3016440045
34.2961840444
34.2907160456
34.2852381473
34.279742455
34.2742251474
34.2686796962
34.2631038044
34.2574899984
34.2518357466
34.2461337007
34.2403813179
34.2345724395
34.2287031268
34.2227667473
34.2167580144
34.2106730316
34.2045069094
34.1982560073
34.1919144949
34.1854805718
34.178947689
34.1723166481
34.1655837947
34.1587486886
34.1518130241
34.1447829297
34.1376606055
34.1304589674
34.1231899841
34.1158746362
34.108538316
34.1012221494
34.0939674724
34.0868368574
34.079908652
34.0732754981
34.0670576709
34.0613955365
34.056458506
34.052451388
34.0496059166
34.0481910294
34.048486056
34.0507587648
34.0551449777
34.0614265356
34.0684776819
34.0733045926
34.0695763601
34.0457087556
33.9822696459
33.8490428195
33.5979550161
33.1535194279
32.4074909305
31.2311676133
29.5085298733
27.1716986691
24.2141201355
20.6942197435
16.7171123391
12.2448243491
7.01281717256
1.74169062462
63.8709808225
59.9373391452
57.0711585923
54.7890255811
52.8895143986
51.2659266997
49.8529444981
48.6082536318
47.5021554152
46.5125701677
45.6224626315
44.818327205
44.0892357233
43.4262015827
42.8217309711
42.2694951079
41.7640857542
41.3008311085
40.8756575776
40.4849840293
40.1256434128
39.794818666
39.4899968494
39.2089261186
38.9495864097
38.710157858
38.4890003655
38.2846291829
38.0957008434
37.920992897
37.7593954324
37.6098930284
37.4715604291
37.3435469882
37.225074391
37.1154233922
37.0139340915
36.9199938152
36.8330428583
36.7525685789
36.6780939453
36.6091155849
36.545225315
36.4860676096
36.4313078011
36.3806159325
36.3336855094
36.2902296494
36.2499844596
36.2127026936
36.17815694
36.146133805
36.1164376363
36.0888836868
36.0633035999
36.0395383893
36.017443314
35.9968814175
35.9777284181
35.9598666777
35.9431899283
35.9275963789
35.9129962283
35.8993024355
35.8864383078
35.874330387
35.8629126348
35.8521221693
35.8419055314
35.8322057396
35.8229763516
35.8141740512
35.8057602812
35.7976968874
35.7899401201
35.78246872
35.7752592854
35.7682799897
35.7615051851
35.7549233904
35.7485047496
35.7422312804
35.7360894097
35.7300609408
35.724133791
35.7182943222
35.7125326239
35.7068346133
35.7011927524
35.6955972659
35.6900414078
35.6845147387
35.6790121024
35.6735246558
35.6680487559
35.6625764214
35.6571043523
35.6516244354
35.6461342425
35.640626351
35.6350972368
35.629540584
35.6239541168
35.6183305517
35.6126676612
35.6069587819
35.601201377
35.5953898241
35.5895205654
35.5835878209
35.5775866461
35.5715138245
35.5653650472
35.559137172
35.5528255578
35.5464293515
35.5399432699
35.5333688928
35.5267054578
35.5199549537
35.5131214555
35.5062147589
35.4992388741
35.4922131695
35.485153864
35.478090402
35.4710555254
35.4641007517
35.4572804268
35.4506703964
35.4443667725
35.4384850485
35.4331708893
35.4285999231
35.4249817374
35.4225695868
35.4216564377
35.42258332
35.425717817
35.4314270736
35.4399485041
35.4511453057
35.4639046959
35.475077795
35.4778367795
35.4595752328
35.398734786
35.2614048691
34.9936384087
34.5125512005
33.7033538158
32.4352108646
30.596638484
28.1298243794
25.0383465891
21.3826108623
17.2647666639
12.6629029878
7.32642361851
1.88165302228
65.675583816
61.9510213789
59.0481305103
56.6948534608
54.7272832757
53.04584657
51.5850937371
50.3008508914
49.1616039599
48.1438214177
47.2293644602
46.4039029758
45.6558945593
44.9758934379
44.3560603578