/*--------------------------------*- C++ -*----------------------------------*\
| =========                 |                                                 |
| \\      /  F ield         | OpenFOAM: The Open Source CFD Toolbox           |
|  \\    /   O peration     | Version:  2106                                  |
|   \\  /    A nd           | Website:  www.openfoam.com                      |
|    \\/     M anipulation  |                                                 |
\*---------------------------------------------------------------------------*/
FoamFile
{
    version     2.0;
    format      ascii;
    arch        "LSB;label=32;scalar=64";
    class       surfaceScalarField;
    location    "0.155";
    object      phi;
}
// * * * * * * * * * * * * * * * * * * * * * * * * * * * * * * * * * * * * * //

dimensions      [0 3 -1 0 0 0 0];

oriented        oriented;

internalField   nonuniform List<scalar> 
22100
(
3.38461204645e-05
1.61538795309e-05
2.24572102546e-05
1.13889103203e-05
1.62585535734e-05
6.19865674841e-06
1.27977767868e-05
3.46077686437e-06
1.08046431022e-05
1.99313376989e-06
9.60459025893e-06
1.20005292663e-06
8.85132267549e-06
7.53267666346e-07
8.364354033e-06
4.86968726691e-07
8.04433631855e-06
3.20017798505e-07
7.83284168294e-06
2.11494718521e-07
7.69339866943e-06
1.3944309475e-07
7.60224192165e-06
9.1156826661e-08
7.54347926951e-06
5.87627304845e-08
7.506342478e-06
3.71368699612e-08
7.48350309249e-06
2.283946513e-08
7.46998240327e-06
1.35207704343e-08
7.4624179392e-06
7.56454686952e-09
7.45855010564e-06
3.86791592769e-09
7.4568313338e-06
1.71885464463e-09
7.45642503812e-06
4.06376500135e-10
7.45677528573e-06
-3.50168827788e-10
7.4574619919e-06
-6.86627544464e-10
7.45822098783e-06
-7.58916644427e-10
7.45894709625e-06
-7.26028812702e-10
7.45959236955e-06
-6.45192308788e-10
7.46013742283e-06
-5.44969632962e-10
7.46058080166e-06
-4.43292894331e-10
7.46093094307e-06
-3.50054477723e-10
7.46120072898e-06
-2.69699350714e-10
7.46140421799e-06
-2.03404222898e-10
7.46155475541e-06
-1.50455267624e-10
7.46166400938e-06
-1.09174897661e-10
7.46174163752e-06
-7.75516867212e-11
7.46179576895e-06
-5.4055519709e-11
7.46183053603e-06
-3.46888115972e-11
7.46185072618e-06
-2.01086297131e-11
7.46186095742e-06
-1.01466143731e-11
7.46186476989e-06
-3.72646444761e-12
7.46186414475e-06
7.09471176773e-13
7.46186021232e-06
4.01507234413e-12
7.46185389978e-06
6.39452477142e-12
7.46184581236e-06
8.16812059471e-12
7.4618363159e-06
9.57314929215e-12
7.46182559493e-06
1.0791832807e-11
7.46181366632e-06
1.19965482836e-11
7.46180041709e-06
1.33166973822e-11
7.46178562899e-06
1.48544755398e-11
7.46176898522e-06
1.67077045933e-11
7.46175005136e-06
1.89946108025e-11
7.46172830951e-06
2.18019037474e-11
7.4617031547e-06
2.52153707994e-11
7.46167387802e-06
2.93360279268e-11
7.46163967066e-06
3.42637263186e-11
7.46159964252e-06
4.00845527823e-11
7.46155286307e-06
4.68365852223e-11
7.46149844623e-06
5.44698592024e-11
7.46143565171e-06
6.28408639592e-11
7.46136417566e-06
7.15227214302e-11
7.46128463669e-06
7.95912238869e-11
7.46119935637e-06
8.53330233931e-11
7.46111425321e-06
8.51553753248e-11
7.4610416929e-06
7.26171427011e-11
7.46099022883e-06
5.15257033603e-11
7.46097823213e-06
1.20553154752e-11
7.46104162987e-06
-6.33355005073e-11
7.46123887395e-06
-1.97166615245e-10
7.4616649782e-06
-4.26013664e-10
7.46247099088e-06
-8.05910729793e-10
7.46389390147e-06
-1.42277596938e-09
7.46629180745e-06
-2.39774944194e-09
7.47011697405e-06
-3.82502264961e-09
7.47659419666e-06
-6.47708619839e-09
7.48742064141e-06
-1.08263109276e-08
7.50569736128e-06
-1.82765938587e-08
7.53906610268e-06
-3.3368581425e-08
7.6086401404e-06
-6.9573845926e-08
7.77613600421e-06
-1.67495732253e-07
8.23336320862e-06
-4.57227222447e-07
9.70913952047e-06
-1.47577635798e-06
-5.48897206771e-06
1.51981118415e-05
5.02175949635e-05
1.59362846547e-05
4.42441119346e-05
1.73623935223e-05
3.77795019619e-05
1.26632668617e-05
3.26461446101e-05
8.59413435966e-06
2.89380926066e-05
5.70118592472e-06
2.63596223012e-05
3.77852338291e-06
2.45875179742e-05
2.52537214454e-06
2.33734759974e-05
1.70101085485e-06
2.25435270326e-05
1.149966912e-06
2.19782184403e-05
7.76803456668e-07
2.15955160199e-05
5.22145659483e-07
2.13387395843e-05
3.47933405277e-07
2.11684982233e-05
2.29004235911e-07
2.1057340822e-05
1.48294418252e-07
2.09861531836e-05
9.40272538574e-08
2.09416811731e-05
5.79929345785e-08
2.09147998447e-05
3.44460297663e-08
2.08993013762e-05
1.9366538495e-08
2.08910784485e-05
9.94193358474e-09
2.08872791855e-05
4.20578825884e-09
2.08862117796e-05
7.17382493634e-10
2.08864588716e-05
-9.33574030524e-10
2.08873321798e-05
-1.63207845478e-09
2.08884739028e-05
-1.86760320893e-09
2.08896497955e-05
-1.82093358351e-09
2.08907356839e-05
-1.63070474364e-09
2.08916764789e-05
-1.38393394469e-09
2.08924574507e-05
-1.13087334707e-09
2.08930862745e-05
-8.98373385023e-10
2.08935820217e-05
-6.99006474478e-10
2.08939692068e-05
-5.37499943247e-10
2.08942751127e-05
-4.14944812749e-10
2.08944901107e-05
-2.92415616732e-10
2.08946410451e-05
-2.04852411064e-10
2.08947450604e-05
-1.38560819044e-10
2.08948138671e-05
-8.8768085008e-11
2.08948572453e-05
-5.33776988621e-11
2.08948835704e-05
-2.99065252153e-11
2.08948977471e-05
-1.33243902748e-11
2.08949026892e-05
-7.85597315682e-13
2.08949007976e-05
8.42366450829e-12
2.08948937469e-05
1.53494307503e-11
2.0894882684e-05
2.07586610164e-11
2.08948683583e-05
2.52342977556e-11
2.0894851171e-05
2.92991540522e-11
2.08948312768e-05
3.33243743185e-11
2.08948086691e-05
3.7569144337e-11
2.08947832298e-05
4.22472800927e-11
2.08947547276e-05
4.7594709613e-11
2.0894722912e-05
5.3716337999e-11
2.08946875475e-05
6.06767246368e-11
2.08946484572e-05
6.85194375558e-11
2.08946056073e-05
7.72061758635e-11
2.08945592311e-05
8.65525738145e-11
2.08945100525e-05
9.6100747285e-11
2.08944596867e-05
1.04913692948e-10
2.08944112043e-05
1.1140378325e-10
2.08943701335e-05
1.12682884899e-10
2.08943457641e-05
1.04050408534e-10
2.08943530828e-05
7.8099491442e-11
2.08944180611e-05
2.02718469104e-11
2.08945898294e-05
-9.90400562266e-11
2.08949367056e-05
-2.95234505081e-10
2.08955763505e-05
-6.27469891441e-10
2.08966241276e-05
-1.1109751324e-09
2.08982500308e-05
-1.82291532508e-09
2.09008145192e-05
-2.99032024742e-09
2.09048691963e-05
-4.86035147803e-09
2.09112894182e-05
-7.84273184034e-09
2.09215096916e-05
-1.26177776595e-08
2.09380400656e-05
-2.03551428492e-08
2.0965051979e-05
-3.34887122532e-08
2.10095422907e-05
-5.53163342852e-08
2.10847839511e-05
-9.35179223584e-08
2.12168997996e-05
-1.65484002837e-07
2.14592115675e-05
-3.11885153537e-07
2.1920516774e-05
-6.2880058088e-07
2.28149462465e-05
-1.35165634614e-06
2.44748132887e-05
-3.13564231966e-06
-7.10161643535e-06
2.60874575003e-05
5.35171054265e-05
1.24191792944e-05
5.29349685954e-05
1.79445305021e-05
4.9653840535e-05
1.59443950517e-05
4.58401819671e-05
1.24077930542e-05
4.24400930395e-05
9.10127498636e-06
3.97291731344e-05
6.48944342212e-06
3.76873066998e-05
4.56723871157e-06
3.61976639097e-05
3.19065377665e-06
3.51326133132e-05
2.21501763936e-06
3.43823683055e-05
1.52704859279e-06
3.38606273826e-05
1.0438867078e-06
3.35023472303e-05
7.06213682793e-07
3.32596024642e-05
4.7174912823e-07
3.30975923643e-05
3.10304647073e-07
3.29913365909e-05
2.00283159151e-07
3.29230951407e-05
1.26234518159e-07
3.28804077787e-05
7.71335257885e-08
3.28546234321e-05
4.51510169244e-08
3.28397973841e-05
2.47681107037e-08
3.28318722398e-05
1.21310592775e-08
3.28280042577e-05
4.58549217898e-09
3.28270079689e-05
6.28425045725e-11
3.28271910766e-05
-1.81505760902e-09
3.28280424046e-05
-2.71880045419e-09
3.28291615422e-05
-2.9399383017e-09
3.28303125825e-05
-2.78161042084e-09
3.28313727579e-05
-2.44397357717e-09
3.28322877324e-05
-2.04571281653e-09
3.28330426255e-05
-1.65313436791e-09
3.28336435116e-05
-1.29976464308e-09
3.28341054027e-05
-9.99267137767e-10
3.28344448478e-05
-7.54268384404e-10
3.28347154846e-05
-5.62930050314e-10
3.28349351225e-05
-4.24365100692e-10
3.28350878245e-05
-2.91133772383e-10
3.28351913244e-05
-1.92136676864e-10
3.28352609098e-05
-1.22830169716e-10
3.28353059673e-05
-7.4833329374e-11
3.28353334813e-05
-4.07101403366e-11
3.28353474738e-05
-1.46526375245e-11
3.28353514623e-05
4.55585056532e-12
3.2835347938e-05
1.89873556203e-11
3.28353387292e-05
3.00759586369e-11
3.28353251219e-05
3.89487794587e-11
3.28353079118e-05
4.66156282988e-11
3.28352875991e-05
5.37391431234e-11
3.2835264508e-05
6.07563950316e-11
3.28352388295e-05
6.8019812101e-11
3.28352105486e-05
7.59720543558e-11
3.2835179753e-05
8.46092977645e-11
3.28351467409e-05
9.37821850801e-11
3.28351120468e-05
1.03300990459e-10
3.28350765992e-05
1.12738635762e-10
3.28350419972e-05
1.21236140205e-10
3.28350109851e-05
1.27187395519e-10
3.28349881176e-05
1.27852548199e-10
3.28349802932e-05
1.19305197464e-10
3.28349981795e-05
9.48748163139e-11
3.28350587728e-05
4.35297347976e-11
3.28351909304e-05
-5.39844157116e-11
3.28354453984e-05
-2.34109228386e-10
3.28359093373e-05
-5.62885682561e-10
3.28366092297e-05
-9.95030609295e-10
3.28376281672e-05
-1.64629437483e-09
3.2839219968e-05
-2.70265045863e-09
3.28417696439e-05
-4.37246057963e-09
3.28457829067e-05
-7.00341759764e-09
3.28520786751e-05
-1.11559043858e-08
3.28619786885e-05
-1.77425193305e-08
3.28776631955e-05
-2.83020614204e-08
3.29028202391e-05
-4.55119561719e-08
3.2942847716e-05
-7.3515980601e-08
3.30076634582e-05
-1.20131867172e-07
3.31144056181e-05
-2.00259818971e-07
3.32923758018e-05
-3.43453838525e-07
3.35903118039e-05
-6.09820730772e-07
3.40802544024e-05
-1.11874272855e-06
3.48299014947e-05
-2.10130296084e-06
3.57046565427e-05
-4.01039686336e-06
-7.18611469721e-06
3.57891567394e-05
5.35105665534e-05
8.90861281286e-06
5.55742225024e-05
1.58808746957e-05
5.52424829388e-05
1.62761347495e-05
5.35977865212e-05
1.40524895973e-05
5.1541848381e-05
1.11572132574e-05
4.95802807148e-05
8.45101121958e-06
4.79243517813e-05
6.22316777507e-06
4.66181399896e-05
4.49686569656e-06
4.56304672721e-05
3.20269048396e-06
4.49051184175e-05
2.25239757301e-06
4.43840913397e-05
1.56491390859e-06
4.40166953314e-05
1.07360981433e-06
4.37619690259e-05
7.26475557653e-07
4.35882706751e-05
4.84003123642e-07
4.34718716664e-05
3.16682294678e-07
4.33953620748e-05
2.02744237747e-07
4.33461924436e-05
1.26303284717e-07
4.33154556885e-05
7.58878991999e-08
4.32969204336e-05
4.33034914694e-08
4.32862957654e-05
2.27558530461e-08
4.32806945696e-05
1.01868133851e-08
4.3277888722e-05
2.86881510031e-09
4.32770639217e-05
-9.90132127723e-10
4.32772847454e-05
-2.93949821987e-09
4.3277975644e-05
-3.63070906278e-09
4.32788424725e-05
-3.64830935153e-09
4.32797194239e-05
-3.32079510004e-09
4.32805213274e-05
-2.84748813751e-09
4.32812117575e-05
-2.34343827694e-09
4.32817824032e-05
-1.87028724677e-09
4.32822400284e-05
-1.45677303328e-09
4.3282597421e-05
-1.11154395239e-09
4.32828644903e-05
-8.29881852076e-10
4.32830460078e-05
-6.05762118443e-10
4.32831828625e-05
-4.27863777939e-10
4.32832745144e-05
-2.8366233771e-10
4.32833307327e-05
-1.78924223818e-10
4.32833735061e-05
-1.17484511788e-10
4.32834007439e-05
-6.78282472407e-11
4.32834149957e-05
-2.87889163378e-11
4.3283419841e-05
-1.78724982311e-13
4.3283417267e-05
2.16683478283e-11
4.32834089031e-05
3.85450163909e-11
4.32833960063e-05
5.19507106902e-11
4.32833792614e-05
6.34637713037e-11
4.32833591036e-05
7.39948255959e-11
4.32833358616e-05
8.40921477397e-11
4.32833098183e-05
9.41572474209e-11
4.32832814043e-05
1.04482729952e-10
4.32832511008e-05
1.15005673011e-10
4.32832194904e-05
1.2547630449e-10
4.32831875082e-05
1.35361231661e-10
4.32831565765e-05
1.4374664575e-10
4.3283128762e-05
1.49122902586e-10
4.32831069852e-05
1.49032897214e-10
4.32830954028e-05
1.39505160198e-10
4.32831008591e-05
1.13919691327e-10
4.32831349457e-05
6.08540742827e-11
4.32832158302e-05
-3.72889417961e-11
4.3283364733e-05
-2.02808229401e-10
4.32835823978e-05
-4.5168736297e-10
4.32840004414e-05
-9.80844987008e-10
4.32847365678e-05
-1.73106840418e-09
4.32859550597e-05
-2.86468412119e-09
4.32878606884e-05
-4.60817220303e-09
4.32908025474e-05
-7.31419284858e-09
4.32953421435e-05
-1.15428447954e-08
4.33023626228e-05
-1.81761874653e-08
4.33132549429e-05
-2.863462439e-08
4.33301934048e-05
-4.52402829177e-08
4.33565169406e-05
-7.18352734693e-08
4.339784646e-05
-1.14845320618e-07
4.3463122662e-05
-1.85407878532e-07
4.35662249391e-05
-3.03361873366e-07
4.37273718512e-05
-5.04600556399e-07
4.3971587188e-05
-8.54036089321e-07
4.43161539734e-05
-1.46330959687e-06
4.47230211461e-05
-2.5081697821e-06
4.49511156392e-05
-4.23849126912e-06
-6.66425210428e-06
4.4429254289e-05
5.27351380882e-05
6.17347480009e-06
5.5730934687e-05
1.28850782337e-05
5.73114746656e-05
1.46955949043e-05
5.76109923007e-05
1.37529720859e-05
5.71335232831e-05
1.16346824035e-05
5.63194689357e-05
9.26506569448e-06
5.54489889634e-05
7.09364787355e-06
5.46629786192e-05
5.28287616663e-06
5.40136832871e-05
3.85198593979e-06
5.35061522016e-05
2.75992878075e-06
5.31242565571e-05
1.94680967455e-06
5.28449873257e-05
1.35287916692e-06
5.26454414448e-05
9.26021561648e-07
5.25057176296e-05
6.2372706315e-07
5.24097233697e-05
4.12676680338e-07
5.23450179685e-05
2.6744976587e-07
5.23022808765e-05
1.69040504312e-07
5.22746945882e-05
1.03474314244e-07
5.2257371084e-05
6.06271229738e-08
5.22468636153e-05
3.32634486726e-08
5.22407653049e-05
1.62852497971e-08
5.22374582392e-05
6.17600620421e-09
5.22359612271e-05
5.07004984243e-10
5.22354554803e-05
-2.43362528805e-09
5.22355228322e-05
-3.69793237276e-09
5.22358709423e-05
-3.99628965387e-09
5.22363280985e-05
-3.77782217603e-09
5.22367976545e-05
-3.3169168456e-09
5.22372285002e-05
-2.77415834908e-09
5.22375978835e-05
-2.23954631016e-09
5.22378990712e-05
-1.75783827352e-09
5.22381346962e-05
-1.34704897558e-09
5.22383148767e-05
-1.00994278118e-09
5.22384513139e-05
-7.42075319856e-10
5.22385546693e-05
-5.31092210619e-10
5.22386398961e-05
-3.68760009281e-10
5.22387093823e-05
-2.48282959832e-10
5.22387536696e-05
-1.61648317695e-10
5.22387881091e-05
-1.02147546639e-10
5.22388060081e-05
-4.65718742851e-11
5.22388128765e-05
-6.93577620318e-12
5.22388116657e-05
2.29883545109e-11
5.22388043771e-05
4.59420380594e-11
5.22387923691e-05
6.40653977802e-11
5.22387765574e-05
7.93787379247e-11
5.22387575918e-05
9.30601966593e-11
5.22387361019e-05
1.05683363823e-10
5.2238713242e-05
1.17123333527e-10
5.22386876602e-05
1.30169230134e-10
5.22386595816e-05
1.43178318764e-10
5.22386301964e-05
1.54945637016e-10
5.22386005082e-05
1.65130953989e-10
5.22385719615e-05
1.72373996607e-10
5.22385467761e-05
1.74386131868e-10
5.22385288326e-05
1.67052712458e-10
5.22385273317e-05
1.41082176745e-10
5.22385514929e-05
8.98304639312e-11
5.22386126905e-05
-2.73565110034e-13
5.22387233338e-05
-1.47853372412e-10
5.22388960603e-05
-3.75444832609e-10
5.2239212266e-05
-7.67808600781e-10
5.22397040811e-05
-1.47257863526e-09
5.22404441113e-05
-2.47100442206e-09
5.22415651659e-05
-3.98563450705e-09
5.22432702549e-05
-6.31315211948e-09
5.22458613569e-05
-9.90515583738e-09
5.22497914583e-05
-1.54727788882e-08
5.22557540735e-05
-2.41386176898e-08
5.22648136747e-05
-3.76940042598e-08
5.22785993113e-05
-5.9025673862e-08
5.22995910003e-05
-9.28267383879e-08
5.23315409969e-05
-1.46795105116e-07
5.23798570838e-05
-2.33723702293e-07
5.2451572603e-05
-3.7507700306e-07
5.25537168107e-05
-6.067443653e-07
5.26870594168e-05
-9.87378494303e-07
5.28295903597e-05
-1.60584045914e-06
5.28997637297e-05
-2.57834266191e-06
5.26840507803e-05
-4.02277840467e-06
-5.85426402116e-06
5.18740635354e-05
5.19834865544e-05
4.18998832189e-06
5.50586642103e-05
9.80990071101e-06
5.76386135888e-05
1.21156456576e-05
5.93259036648e-05
1.20656821318e-05
6.02280158301e-05
1.07325703644e-05
6.05929271391e-05
8.90015451089e-06
6.06482841788e-05
7.03829095805e-06
6.05531898356e-05
5.37797063301e-06
6.04029553748e-05
4.00222052251e-06
6.02479149848e-05
2.91496929147e-06
6.01107895779e-05
2.08393520138e-06
5.99990301871e-05
1.46463867759e-06
5.99125151586e-05
1.01253671233e-06
5.98479234303e-05
6.88318915662e-07
5.98010200475e-05
4.59580188698e-07
5.97677356072e-05
3.00734333443e-07
5.97445944961e-05
1.92181743233e-07
5.97288162392e-05
1.19252699953e-07
5.97182684353e-05
7.11750563042e-08
5.97113626573e-05
4.01693556263e-08
5.97069438107e-05
2.07042242385e-08
5.97042105487e-05
8.90939489877e-09
5.970260217e-05
2.11551056117e-09
5.97016984948e-05
-1.52982181892e-09
5.97012411456e-05
-3.24045335806e-09
5.97010526689e-05
-3.80768278822e-09
5.97010175448e-05
-3.74256801098e-09
5.97010630995e-05
-3.36234238905e-09
5.97011455847e-05
-2.85651608383e-09
5.97012393105e-05
-2.33314622658e-09
5.97013303501e-05
-1.84875299421e-09
5.97014120389e-05
-1.42861302454e-09
5.9701482812e-05
-1.08059078779e-09
5.97015433512e-05
-8.02484915322e-10
5.97015944654e-05
-5.82073866959e-10
5.97016354301e-05
-4.09593776979e-10
5.97016646225e-05
-2.7734774476e-10
5.97016819743e-05
-1.78876789164e-10
5.97016831211e-05
-1.03173145722e-10
5.97016743011e-05
-3.76315727833e-11
5.9701667766e-05
-2.8311900483e-13
5.97016588056e-05
3.20661647969e-11
5.97016478125e-05
5.70527107902e-11
5.97016359267e-05
7.60647733845e-11
5.97016216844e-05
9.37287460505e-11
5.97016047688e-05
1.10082228244e-10
5.97015850597e-05
1.25502925745e-10
5.97015620508e-05
1.40244985835e-10
5.97015379684e-05
1.54355302076e-10
5.97015137112e-05
1.67526111244e-10
5.97014896287e-05
1.7911475915e-10
5.97014669615e-05
1.87886800745e-10
5.97014474416e-05
1.91980898657e-10
5.9701433087e-05
1.88820541882e-10
5.97014250303e-05
1.75185475052e-10
5.97014182229e-05
1.47966726304e-10
5.9701412461e-05
9.56689670113e-11
5.97014213975e-05
-9.12620218752e-12
5.9701468807e-05
-1.95172541777e-10
5.97016354144e-05
-5.41967356868e-10
5.97019146375e-05
-1.04695541336e-09
5.97022759694e-05
-1.83382143014e-09
5.97028202389e-05
-3.0151680574e-09
5.9703630901e-05
-4.79619265676e-09
5.97048205504e-05
-7.50269062364e-09
5.97065529031e-05
-1.16373719951e-08
5.97090649067e-05
-1.79846224483e-08
5.97126990429e-05
-2.77725562534e-08
5.97179444637e-05
-4.29391881216e-08
5.97254838253e-05
-6.6564798402e-08
5.9736225709e-05
-1.03568408533e-07
5.97512398357e-05
-1.61809042188e-07
5.97713793814e-05
-2.53862987523e-07
5.97960765395e-05
-3.99773750544e-07
5.98201953191e-05
-6.30862684342e-07
5.98268382784e-05
-9.94021200377e-07
5.97737855598e-05
-1.55278757062e-06
5.95725087109e-05
-2.37706525562e-06
5.90636103922e-05
-3.51388006611e-06
-4.87412246035e-06
5.80834694108e-05
5.14373054569e-05
2.75268294436e-06
5.42658208102e-05
6.98138549118e-06
5.72496436141e-05
9.13182298705e-06
5.97900280916e-05
9.52529777774e-06
6.17201287071e-05
8.80246987505e-06
6.30883037763e-05
7.53197956748e-06
6.40167174599e-05
6.10987739983e-06
6.46292373844e-05
4.76545083154e-06
6.5025804473e-05
3.60565355605e-06
6.52790791813e-05
2.66169470395e-06
6.54389743628e-05
1.92404013899e-06
6.55386913241e-05
1.36492183572e-06
6.55999299877e-05
9.51298169509e-07
6.56367449177e-05
6.51504108669e-07
6.56581961104e-05
4.38129121015e-07
6.56701043914e-05
2.88826179176e-07
6.5676193639e-05
1.86092623869e-07
6.56788298917e-05
1.16616576833e-07
6.5679500196e-05
7.05048817053e-08
6.5679123759e-05
4.05459213333e-08
6.56782560155e-05
2.15720949903e-08
6.56772246186e-05
9.94091866547e-09
6.5676214752e-05
3.12550490267e-09
6.56753049349e-05
-6.19876438733e-10
6.56745353624e-05
-2.47075241062e-09
6.56739060086e-05
-3.17820046194e-09
6.56734060163e-05
-3.2424476332e-09
6.56730179262e-05
-2.97412432217e-09
6.56727227628e-05
-2.56122542463e-09
6.56725023813e-05
-2.11263917325e-09
6.56723406914e-05
-1.68693955762e-09
6.56722240527e-05
-1.3118506878e-09
6.56721405386e-05
-9.96949772451e-10
6.56720794767e-05
-7.41293797128e-10
6.56720349676e-05
-5.37434758826e-10
6.56720028421e-05
-3.77340523066e-10
6.56719774613e-05
-2.51841528199e-10
6.56719551889e-05
-1.56480215099e-10
6.56719377467e-05
-8.5607546181e-11
6.56719349402e-05
-3.47036645775e-11
6.56719331008e-05
1.67598108306e-12
6.56719256498e-05
3.96342928061e-11
6.56719155595e-05
6.72575222017e-11
6.56719024623e-05
8.92724289407e-11
6.56718876188e-05
1.08679648762e-10
6.567187111e-05
1.26700830922e-10
6.56718527702e-05
1.43955598474e-10
6.56718325051e-05
1.60617607344e-10
6.56718113306e-05
1.75625377736e-10
6.56717904971e-05
1.88448249677e-10
6.56717688928e-05
2.00809773372e-10
6.56717471166e-05
2.09755337316e-10
6.56717261769e-05
2.13007407064e-10
6.56717076529e-05
2.07424316789e-10
6.56716943866e-05
1.88529731429e-10
6.56716923463e-05
1.50086087453e-10
6.56717016475e-05
8.64508517856e-11
6.56717117842e-05
-1.9174611806e-11
6.56717747356e-05
-2.58039557002e-10
6.56718546416e-05
-6.21801851544e-10
6.56719830198e-05
-1.17525834845e-09
6.56721660342e-05
-2.01673586374e-09
6.5672417818e-05
-3.26684330293e-09
6.56727534368e-05
-5.13171230353e-09
6.56731816266e-05
-7.93077148249e-09
6.56736972575e-05
-1.21528715458e-08
6.56742669829e-05
-1.85541742307e-08
6.56747989211e-05
-2.83042660776e-08
6.5675084013e-05
-4.32240210739e-08
6.56746850805e-05
-6.61656046231e-08
6.56727241429e-05
-1.01607244502e-07
6.56674385773e-05
-1.56523303815e-07
6.56552546501e-05
-2.41678872794e-07
6.56289789652e-05
-3.73497726959e-07
6.55743380806e-05
-5.76221342323e-07
6.54638567786e-05
-8.83539567679e-07
6.5247880569e-05
-1.33681122988e-06
6.48454008858e-05
-1.97458507055e-06
6.41421470429e-05
-2.81062607091e-06
-3.77682072202e-06
6.30448457295e-05
5.10850424491e-05
1.66764057818e-06
5.36118447993e-05
4.45458327539e-06
5.66873168713e-05
6.05635104925e-06
5.9689447029e-05
6.52316774557e-06
6.22997277945e-05
6.19218923748e-06
6.44136895218e-05
5.41801796637e-06
6.60471858395e-05
4.47638120715e-06
6.72686175739e-05
3.54401922102e-06
6.81598968131e-05
2.71437443893e-06
6.87977636289e-05
2.02382800787e-06
6.92467482339e-05
1.47505565246e-06
6.95579672993e-05
1.05370288938e-06
6.97704341965e-05
7.3883139234e-07
6.99131774559e-05
5.08760970994e-07
7.00073887178e-05
3.43917983683e-07
7.00682983636e-05
2.27916660771e-07
7.01067003613e-05
1.47690755016e-07
7.0130142468e-05
9.31746001982e-08
7.0143831177e-05
5.68163023029e-08
7.01513065923e-05
3.30706340584e-08
7.01549380672e-05
1.79407468966e-08
7.01562844787e-05
8.59463366242e-09
7.01563543881e-05
3.05572235024e-09
7.01557609144e-05
-2.62754005671e-11
7.01548973032e-05
-1.60701364869e-09
7.01539708262e-05
-2.25159641182e-09
7.01530989947e-05
-2.37049062357e-09
7.01523355065e-05
-2.21051110226e-09
7.01516976225e-05
-1.92321712544e-09
7.01511825538e-05
-1.59744754832e-09
7.01507774538e-05
-1.28171655353e-09
7.01504654659e-05
-9.9973964656e-10
7.01502290754e-05
-7.60433332804e-10
7.01500521401e-05
-5.64230292131e-10
7.01499216597e-05
-4.06828661433e-10
7.01498269649e-05
-2.82523568238e-10
7.01497608089e-05
-1.8556548241e-10
7.01497161857e-05
-1.11735207736e-10
7.01496858307e-05
-5.51302868984e-11
7.01496549803e-05
-3.73438919142e-12
7.01496291962e-05
2.75765897229e-11
7.01496139672e-05
5.49771202514e-11
7.01496022055e-05
7.91290435883e-11
7.01495912849e-05
1.00299706517e-10
7.01495803326e-05
1.19737530556e-10
7.01495689086e-05
1.3823078607e-10
7.01495568326e-05
1.56135441528e-10
7.01495440949e-05
1.73451937356e-10
7.01495299139e-05
1.89895633107e-10
7.01495135142e-05
2.04936675892e-10
7.01494966974e-05
2.17717040409e-10
7.01494800373e-05
2.2650128003e-10
7.01494642287e-05
2.28893850146e-10
7.01494499764e-05
2.2175460861e-10
7.01494373918e-05
2.01195768975e-10
7.01494247364e-05
1.62820255771e-10
7.01494079761e-05
1.03290697577e-10
7.01494004537e-05
-1.15733331158e-11
7.014939022e-05
-2.47734611909e-10
7.01493971446e-05
-6.28657282192e-10
7.01494023516e-05
-1.18037809845e-09
7.01493816874e-05
-1.99597370089e-09
7.01493061267e-05
-3.19119308577e-09
7.01491203915e-05
-4.94588885633e-09
7.01487223033e-05
-7.53257764806e-09
7.01479324845e-05
-1.13629239502e-08
7.01464446746e-05
-1.7066194655e-08
7.01437355645e-05
-2.55949446243e-08
7.01389145471e-05
-3.84027582495e-08
7.01304791265e-05
-5.77299193069e-08
7.01159201918e-05
-8.70480720774e-08
7.00910143733e-05
-1.31617330611e-07
7.00485800997e-05
-1.99244525259e-07
6.99764989019e-05
-3.01416317228e-07
6.98545593643e-05
-4.54281429512e-07
6.96498970116e-05
-6.78876839798e-07
6.93118814307e-05
-9.98795511585e-07
6.87697611217e-05
-1.43246433374e-06
6.79390161921e-05
-1.97988088475e-06
-2.59650364414e-06
6.67586994646e-05
5.08804132848e-05
7.87227378608e-07
5.31704664295e-05
2.16453026583e-06
5.62177501444e-05
3.00906746846e-06
5.94382703034e-05
3.3026477126e-06
6.24449702854e-05
3.18548938405e-06
6.50382538756e-05
2.82473450396e-06
6.71548676235e-05
2.35976758468e-06
6.88135663002e-05
1.8853206684e-06
7.00731724829e-05
1.454768378e-06
7.10056696202e-05
1.09133099007e-06
7.16812660707e-05
7.99459321068e-07
7.21614255561e-05
5.73543523566e-07
7.24966065625e-05
4.03650506793e-07
7.27264831163e-05
2.78884539852e-07
7.28812818987e-05
1.89119326687e-07
7.29834713746e-05
1.25727313002e-07
7.30494146641e-05
8.17475951288e-08
7.30908160067e-05
5.17733875464e-08
7.31159088513e-05
3.17235866097e-08
7.31303918728e-05
1.85877401784e-08
7.31381446451e-05
1.01881012204e-08
7.31417626606e-05
4.97674413998e-09
7.31429476707e-05
1.87083856164e-09
7.3142797003e-05
1.24519566398e-10
7.31419699359e-05
-7.79819766574e-10
7.31408823618e-05
-1.1638967018e-09
7.31397623028e-05
-1.25030665773e-09
7.31387292405e-05
-1.1773242826e-09
7.3137835715e-05
-1.02956827521e-09
7.31370957401e-05
-8.57352047595e-10
7.31365020614e-05
-6.87917249046e-10
7.31360374173e-05
-5.3497326443e-10
7.31356810651e-05
-4.03957495906e-10
7.31354124719e-05
-2.95514229084e-10
7.31352133672e-05
-2.07603361276e-10
7.313506821e-05
-1.37245673348e-10
7.31349639795e-05
-8.12107757664e-11
7.31348885986e-05
-3.62274745565e-11
7.31348306162e-05
2.97779226059e-12
7.31347975665e-05
2.94341338052e-11
7.31347720811e-05
5.31741553789e-11
7.3134752993e-05
7.41759631109e-11
7.31347387458e-05
9.34846031564e-11
7.31347274828e-05
1.11666887423e-10
7.31347178747e-05
1.2944742467e-10
7.31347089735e-05
1.47233220917e-10
7.31347000861e-05
1.65120232632e-10
7.31346907046e-05
1.82925578709e-10
7.31346805267e-05
2.00162892184e-10
7.31346694389e-05
2.16114832114e-10
7.3134657423e-05
2.29821216252e-10
7.31346444636e-05
2.39542229671e-10
7.31346305661e-05
2.42871421431e-10
7.31346157564e-05
2.36647190289e-10
7.31346001956e-05
2.16840574392e-10
7.31345843802e-05
1.78711108585e-10
7.31345695244e-05
1.18222410561e-10
7.31345409951e-05
1.70324489944e-11
7.31344936503e-05
-2.00317406754e-10
7.31344169823e-05
-5.51908625796e-10
7.31342888821e-05
-1.05218577759e-09
7.31340659186e-05
-1.77292423514e-09
7.3133677959e-05
-2.80314975837e-09
7.31330076395e-05
-4.27546463427e-09
7.31318576359e-05
-6.38245020525e-09
7.31299009167e-05
-9.40606624077e-09
7.31266066323e-05
-1.37717476307e-08
7.3121101672e-05
-2.0089777823e-08
7.31119497795e-05
-2.9250598202e-08
7.30968180645e-05
-4.25979081417e-08
7.30719710898e-05
-6.22008253755e-08
7.30314089945e-05
-9.10550699208e-08
7.29654852527e-05
-1.33320678729e-07
7.28589750986e-05
-1.94905972562e-07
7.26883715597e-05
-2.8367759072e-07
7.24186204216e-05
-4.09125346606e-07
7.20004737857e-05
-5.80648763715e-07
7.13713550173e-05
-8.03345232327e-07
7.04636617976e-05
-1.07218736261e-06
-1.36278966101e-06
6.92299480832e-05
5.07871726939e-05
5.47690731488e-11
5.29516501112e-05
5.29837138541e-11
5.59606888866e-05
2.88265597935e-11
5.92633224994e-05
1.42254630843e-11
6.24488092083e-05
2.80226956561e-12
6.5273549883e-05
-6.04461215531e-12
6.7633329533e-05
-1.19409741287e-11
6.95186652148e-05
-1.48912117476e-11
7.09734490474e-05
-1.53344603522e-11
7.2064794018e-05
-1.38617621939e-11
7.28642645568e-05
-1.10990471131e-11
7.34378158956e-05
-7.69661777955e-12
7.38414708342e-05
-4.31046244551e-12
7.41203570845e-05
-1.5853272537e-12
7.4309476652e-05
-1.13486409918e-13
7.44352043823e-05
-2.87961234703e-13
7.45169544865e-05
-2.37889079761e-12
7.4568734145e-05
-6.14133888464e-12
7.46004688011e-05
-1.09413747988e-11
7.46190724719e-05
-1.58036620926e-11
7.46292803063e-05
-1.96069108035e-11
7.46342784452e-05
-2.12674377735e-11
7.46361697689e-05
-2.0356630733e-11
7.46363125896e-05
-1.8172551828e-11
7.46355484789e-05
-1.55821514438e-11
7.46343971432e-05
-1.24363243183e-11
7.46331558886e-05
-8.927531644e-12
7.46319837523e-05
-5.06410463755e-12
7.46309546328e-05
-3.25985724475e-13
7.46300937272e-05
3.67630240967e-12
7.46293976795e-05
8.25463997357e-12
7.462884964e-05
1.31924721054e-11
7.46284273583e-05
1.84501686884e-11
7.46281078789e-05
2.40881828853e-11
7.46278701061e-05
3.02899944114e-11
7.46276957915e-05
3.71924778078e-11
7.46275698078e-05
4.490240569e-11
7.46274802699e-05
5.34409910232e-11
7.46274204661e-05
6.29059202438e-11
7.46273774239e-05
7.25936254938e-11
7.46273479914e-05
8.27196532289e-11
7.46273281549e-05
9.41238453689e-11
7.46273149242e-05
1.06823536253e-10
7.46273059854e-05
1.20709084857e-10
7.46272997207e-05
1.35812921709e-10
7.46272949858e-05
1.52068953627e-10
7.46272909506e-05
1.69255265759e-10
7.46272869937e-05
1.86978122987e-10
7.46272826144e-05
2.0463315369e-10
7.46272774213e-05
2.21396436317e-10
7.46272711763e-05
2.36151394356e-10
7.4627263594e-05
2.47208151951e-10
7.46272542552e-05
2.52296965571e-10
7.46272424969e-05
2.48490872402e-10
7.46272272474e-05
2.32165004679e-10
7.46272069022e-05
1.99127662372e-10
7.46271800896e-05
1.45113241588e-10
7.46271376378e-05
5.95630434089e-11
7.46270407024e-05
-1.03306360415e-10
7.46269024944e-05
-4.13616015355e-10
7.462667287e-05
-8.22473987646e-10
7.4626292653e-05
-1.3926258318e-09
7.46256640885e-05
-2.17449551093e-09
7.4624628186e-05
-3.23945090134e-09
7.462292458e-05
-4.67872061345e-09
7.46201317853e-05
-6.61314186445e-09
7.46155840574e-05
-9.22387554831e-09
7.46081983016e-05
-1.27038217822e-08
7.45962076208e-05
-1.72596455452e-08
7.45767789165e-05
-2.31688916451e-08
7.45454996782e-05
-3.09212865554e-08
7.44954809339e-05
-4.10361309276e-08
7.44158442863e-05
-5.36839274824e-08
7.42899603096e-05
-6.90218239218e-08
7.40930702443e-05
-8.67872559535e-08
7.37897490635e-05
-1.0580384175e-07
7.33323843389e-05
-1.23283928075e-07
7.26630662142e-05
-1.34026864713e-07
7.17216969818e-05
-1.30817846382e-07
-1.05085182329e-07
7.0463992712e-05
5.07871716593e-05
-7.8711680741e-07