/*--------------------------------*- C++ -*----------------------------------*\
| =========                 |                                                 |
| \\      /  F ield         | OpenFOAM: The Open Source CFD Toolbox           |
|  \\    /   O peration     | Version:  2106                                  |
|   \\  /    A nd           | Website:  www.openfoam.com                      |
|    \\/     M anipulation  |                                                 |
\*---------------------------------------------------------------------------*/
FoamFile
{
    version     2.0;
    format      ascii;
    arch        "LSB;label=32;scalar=64";
    class       surfaceScalarField;
    location    "0.46";
    object      phi;
}
// * * * * * * * * * * * * * * * * * * * * * * * * * * * * * * * * * * * * * //

dimensions      [0 3 -1 0 0 0 0];

oriented        oriented;

internalField   nonuniform List<scalar> 
22100
(
3.38461202695e-05
1.61538796861e-05
2.24572094986e-05
1.13889103661e-05
1.62585524542e-05
6.19865671982e-06
1.27977754522e-05
3.4607767888e-06
1.08046417196e-05
1.99313367647e-06
9.60458897069e-06
1.20005284488e-06
8.8513215903e-06
7.53267625146e-07
8.36435319681e-06
4.86968730366e-07
8.04433571646e-06
3.20017845117e-07
7.83284126822e-06
2.11494797948e-07
7.69339836738e-06
1.39443187966e-07
7.6022416518e-06
9.11569196498e-08
7.54347896977e-06
5.87628114866e-08
7.50634211395e-06
3.71369330799e-08
7.48350265451e-06
2.28395219615e-08
7.46998189743e-06
1.35208437072e-08
7.46241736252e-06
7.56465652167e-09
7.45854943822e-06
3.86808621433e-09
7.45683052421e-06
1.71907848518e-09
7.45642407872e-06
4.06716895301e-10
7.45677399378e-06
-3.49734204907e-10
7.45746026138e-06
-6.86107761896e-10
7.45821869272e-06
-7.58290252435e-10
7.45894408785e-06
-7.25253467047e-10
7.45958848215e-06
-6.44257983529e-10
7.46013249834e-06
-5.43899579123e-10
7.46057472013e-06
-4.42103024639e-10
7.46092361265e-06
-3.48736719189e-10
7.46119203275e-06
-2.68265274016e-10
7.46139400667e-06
-2.01938628922e-10
7.46154298368e-06
-1.49003057575e-10
7.46165071938e-06
-1.07718022029e-10
7.46172690913e-06
-7.62128908691e-11
7.46177979955e-06
-5.29049416035e-11
7.46181312031e-06
-3.35464529745e-11
7.46183202003e-06
-1.9128268776e-11
7.46184123285e-06
-9.43356484353e-12
7.46184434557e-06
-3.09649611193e-12
7.46184306582e-06
1.24913517466e-12
7.46183860946e-06
4.48041358119e-12
7.46183187609e-06
6.80084423789e-12
7.4618234198e-06
8.54171299938e-12
7.46181361795e-06
9.88937326967e-12
7.46180263299e-06
1.10677767992e-11
7.46179044801e-06
1.22294874783e-11
7.46177689751e-06
1.34865635006e-11
7.46176182706e-06
1.49133969755e-11
7.46174497889e-06
1.65962200868e-11
7.46172602683e-06
1.86850035099e-11
7.4617044966e-06
2.13202535406e-11
7.4616798103e-06
2.45846757833e-11
7.46165132673e-06
2.85514078561e-11
7.46161821745e-06
3.331138087e-11
7.46157953467e-06
3.89426815295e-11
7.46153433155e-06
4.5438663305e-11
7.46148173767e-06
5.27460611693e-11
7.46142112586e-06
6.07096545872e-11
7.46135249313e-06
6.88031114404e-11
7.46127641333e-06
7.61816989704e-11
7.46119536332e-06
8.09643730286e-11
7.46111583991e-06
7.92673483455e-11
7.46105017644e-06
6.56338969369e-11
7.46100567909e-06
4.44211288939e-11
7.4610018805e-06
3.66059192653e-12
7.46107483126e-06
-7.30858990193e-11
7.46128290502e-06
-2.08376402707e-10
7.46172060606e-06
-4.37952460188e-10
7.46253801268e-06
-8.17650871004e-10
7.46397043307e-06
-1.43267837695e-09
7.46637323294e-06
-2.4030929794e-09
7.4701954602e-06
-3.82255149496e-09
7.4766498471e-06
-6.45472123359e-09
7.48742564989e-06
-1.07761415367e-08
7.50560532716e-06
-1.81798770794e-08
7.53879429779e-06
-3.31891441729e-08
7.60800854528e-06
-6.92144366482e-08
7.77465836144e-06
-1.66650005819e-07
8.22952325018e-06
-4.54865032039e-07
9.69699135775e-06
-1.46746839156e-06
-5.45078698527e-06
1.51477779401e-05
5.02175947665e-05
1.59362845607e-05
4.42441113e-05
1.73623932945e-05
3.77795011096e-05
1.26632665896e-05
3.26461437193e-05
8.59413410456e-06
2.89380918749e-05
5.70118573078e-06
2.63596218896e-05
3.77852326515e-06
2.45875179825e-05
2.52537210741e-06
2.33734764606e-05
1.70101088892e-06
2.25435279123e-05
1.14996699395e-06
2.19782196564e-05
7.76803562828e-07
2.15955174673e-05
5.2214576729e-07
2.13387411497e-05
3.47933499647e-07
2.11684998115e-05
2.29004317552e-07
2.10573423699e-05
1.48294507887e-07
2.09861546458e-05
9.40273896676e-08
2.09416824996e-05
5.79931612945e-08
2.09148009594e-05
3.44464014038e-08
2.08993021468e-05
1.93671419616e-08
2.08910787692e-05
9.94289018826e-09
2.08872788196e-05
4.2070869067e-09
2.08862100591e-05
7.19412548261e-10
2.08864559999e-05
-9.31699272244e-10
2.08873276365e-05
-1.62958144839e-09
2.08884673085e-05
-1.86462662279e-09
2.08896407793e-05
-1.81750872071e-09
2.08907239017e-05
-1.62686321032e-09
2.08916616471e-05
-1.37971302409e-09
2.08924393237e-05
-1.12631909341e-09
2.08930646389e-05
-8.93632600773e-10
2.08935567709e-05
-6.94300222968e-10
2.08939405762e-05
-5.33114496159e-10
2.08942420364e-05
-4.09534471762e-10
2.08944529507e-05
-2.87550953328e-10
2.08946000553e-05
-2.00121321792e-10
2.08947003807e-05
-1.33943520559e-10
2.08947658145e-05
-8.46481061076e-11
2.08948064197e-05
-5.01756960518e-11
2.089483049e-05
-2.72230792246e-11
2.08948427342e-05
-1.10323220491e-11
2.08948460853e-05
1.16239631723e-12
2.0894842943e-05
1.00011120368e-11
2.08948349307e-05
1.65332863347e-11
2.08948232131e-05
2.1573408007e-11
2.08948084457e-05
2.57256699962e-11
2.08947909812e-05
2.94795105626e-11
2.08947708958e-05
3.31312859495e-11
2.08947482347e-05
3.6984659689e-11
2.08947229792e-05
4.12662224154e-11
2.08946950121e-05
4.61823768025e-11
2.08946641391e-05
5.1937720369e-11
2.08946301919e-05
5.85011685751e-11
2.08945930808e-05
6.58738808729e-11
2.0894552778e-05
7.40133473576e-11
2.08945095066e-05
8.26559417253e-11
2.0894464072e-05
9.12878886798e-11
2.08944182804e-05
9.89849203042e-11
2.08943755152e-05
1.03909567812e-10
2.08943418924e-05
1.0281189625e-10
2.08943267446e-05
9.13911476605e-11
2.08943455673e-05
6.20235326969e-11
2.08944256526e-05
-1.07737923784e-12
2.08946157008e-05
-1.2446270362e-10
2.08949841369e-05
-3.2413932563e-10
2.08956500829e-05
-6.62654027807e-10
2.0896719589e-05
-1.1429418104e-09
2.08983721298e-05
-1.86090233101e-09
2.09009650417e-05
-3.03113028789e-09
2.09050464029e-05
-4.89938931608e-09
2.0911485553e-05
-7.87207590927e-09
2.09217060399e-05
-1.26238484774e-08
2.093819811e-05
-2.03149695219e-08
2.09651053767e-05
-3.33624277749e-08
2.10093675326e-05
-5.50387482316e-08
2.10841543484e-05
-9.29670937177e-08
2.1215385997e-05
-1.6442114934e-07
2.14559579906e-05
-3.09786700738e-07
2.19136998551e-05
-6.24391946651e-07
2.28004686849e-05
-1.3416338097e-06
2.4443976988e-05
-3.11097684285e-06
-7.03659050799e-06
2.60297792875e-05
5.35171052091e-05
1.24191790303e-05
5.2934967962e-05
1.79445300798e-05
4.96538396916e-05
1.59443946019e-05
4.5840181101e-05
1.24077926476e-05
4.24400923434e-05
9.10127466997e-06
3.97291727689e-05
6.48944321178e-06
3.76873067585e-05
4.56723860246e-06
3.61976644184e-05
3.19065375609e-06
3.5132614228e-05
2.21501768411e-06
3.43823695365e-05
1.52704867961e-06
3.38606288134e-05
1.0438868195e-06
3.35023487362e-05
7.0621380677e-07
3.3259603938e-05
4.71749275643e-07
3.30975937274e-05
3.10304865942e-07
3.29913377728e-05
2.00283517862e-07
3.29230960608e-05
1.26235097898e-07
3.28804083323e-05
7.7134434458e-08
3.28546234438e-05
4.51523590404e-08
3.28397965977e-05
2.47700165348e-08
3.2831870313e-05
1.21336360925e-08
3.28280010275e-05
4.58891219611e-09
3.28270025322e-05
6.70286253671e-11
3.28271834378e-05
-1.81023963976e-09
3.28280319469e-05
-2.71289429965e-09
3.28291477775e-05
-2.93311790597e-09
3.28302950836e-05
-2.77393479675e-09
3.28313511425e-05
-2.43549435476e-09
3.2832261582e-05
-2.03654052788e-09
3.28330115194e-05
-1.6434408765e-09
3.28336070357e-05
-1.28977498458e-09
3.28340630267e-05
-9.89217629486e-10
3.28343977775e-05
-7.44418120016e-10
3.28346639777e-05
-5.53909063532e-10
3.28348801021e-05
-4.16665696356e-10
3.28350269353e-05
-2.81318630695e-10
3.28351260156e-05
-1.8396882759e-10
3.28351917503e-05
-1.16210353637e-10
3.28352336168e-05
-6.9204520958e-11
3.28352584642e-05
-3.58139177922e-11
3.28352702156e-05
-1.05036529267e-11
3.28352724444e-05
7.86191121977e-12
3.28352675979e-05
2.14668666737e-11
3.28352575122e-05
3.17511380891e-11
3.28352433681e-05
3.98560759982e-11
3.28352258499e-05
4.68029547094e-11
3.28352054249e-05
5.31921486139e-11
3.28351824496e-05
5.94714218248e-11
3.28351572389e-05
6.60039226302e-11
3.28351299855e-05
7.30241855282e-11
3.28351007451e-05
8.0842939583e-11
3.28350698871e-05
8.91578076899e-11
3.28350381061e-05
9.7710449877e-11
3.28350063964e-05
1.05937690247e-10
3.28349764845e-05
1.12857116673e-10
3.2834951333e-05
1.16727067882e-10
3.28349355451e-05
1.15063434591e-10
3.28349362455e-05
1.03394993285e-10
3.28349651744e-05
7.39943155239e-11
3.28350396033e-05
1.68097941511e-11
3.283518955e-05
-8.81229984062e-11
3.2835466614e-05
-2.78364061852e-10
3.28359605268e-05
-6.184274001e-10
3.28366818311e-05
-1.04556716307e-09
3.28377294195e-05
-1.71049097664e-09
3.28393636494e-05
-2.77730637454e-09
3.2841957777e-05
-4.45531308622e-09
3.28460163675e-05
-7.08999608133e-09
3.28523541102e-05
-1.12373808904e-08
3.28622840397e-05
-1.78022524501e-08
3.28779701797e-05
-2.8310424684e-08
3.29030721469e-05
-4.54175085544e-08
3.2942939017e-05
-7.32297659542e-08
3.30073974342e-05
-1.19497501049e-07
3.3113422367e-05
-1.98992323778e-07
3.32900138942e-05
-3.41012983685e-07
3.35853530805e-05
-6.05126162106e-07
3.40704806711e-05
-1.10951976467e-06
3.48114725984e-05
-2.08262599843e-06
3.56720653086e-05
-3.97156946633e-06
-7.10445040365e-06
3.57399252999e-05
5.35105663159e-05
8.90861242846e-06
5.55742218523e-05
1.58808741439e-05
5.52424820525e-05
1.6276134188e-05
5.3597785591e-05
1.40524891101e-05
5.15418475882e-05
1.11572128847e-05
4.95802802082e-05
8.45101097366e-06
4.79243516492e-05
6.22316764629e-06
4.66181402507e-05
4.49686567045e-06
4.56304678798e-05
3.20269054151e-06
4.49051192787e-05
2.25239768909e-06
4.43840923299e-05
1.5649140631e-06
4.40166963284e-05
1.07361000417e-06
4.37619699323e-05
7.26475810024e-07
4.35882714149e-05
4.84003506082e-07
4.34718721715e-05
3.16682899232e-07
4.3395362277e-05
2.02745189695e-07
4.33461922354e-05
1.26304721924e-07
4.33154549143e-05
7.58899825681e-08
4.32969188277e-05
4.33063731968e-08
4.3286293017e-05
2.27596925901e-08
4.32806904143e-05
1.01917614792e-08
4.32778829579e-05
2.87472341526e-09
4.32770553475e-05
-9.82411254398e-10
4.32772733886e-05
-2.93076822398e-09
4.32779610566e-05
-3.62065255888e-09
4.32788242676e-05
-3.63699213148e-09
4.32796972547e-05
-3.30832097629e-09
4.32804948351e-05
-2.83405875973e-09
4.3281180617e-05
-2.329274606e-09
4.32817464167e-05
-1.85564441187e-09
4.32821990717e-05
-1.44196406857e-09
4.32825513715e-05
-1.09676493224e-09
4.32828129282e-05
-8.1570557596e-10
4.32829879513e-05
-5.9223613484e-10
4.32831209626e-05
-4.14533972612e-10
4.32832063066e-05
-2.69319625078e-10
4.32832605005e-05
-1.70172228576e-10
4.32833004023e-05
-1.09005574107e-10
4.32833249651e-05
-6.02351508726e-11
4.32833371478e-05
-2.26125808877e-11
4.32833404023e-05
4.69137815412e-12
4.32833366439e-05
2.52894240924e-11
4.32833275422e-05
4.08756526088e-11
4.32833142692e-05
5.31061772651e-11
4.32832973566e-05
6.34558830723e-11
4.32832772999e-05
7.28085881549e-11
4.32832545255e-05
8.1741718177e-11
4.32832293984e-05
9.06169530981e-11
4.3283202307e-05
9.9609317875e-11
4.32831739204e-05
1.08811808593e-10
4.32831449608e-05
1.17776017071e-10
4.32831164686e-05
1.26070006503e-10
4.32830898821e-05
1.32649877714e-10
4.32830672157e-05
1.3585642742e-10
4.32830513743e-05
1.33086082941e-10
4.32830468086e-05
1.20255548628e-10
4.32830615809e-05
8.89187815893e-11
4.32831079523e-05
2.7770785752e-11
4.32832053755e-05
-8.0397781742e-11
4.32833691544e-05
-2.5211243462e-10
4.32836177584e-05
-5.27236101934e-10
4.32840658057e-05
-1.0675176365e-09
4.32848457291e-05
-1.82599623578e-09
4.32861083213e-05
-2.97334921304e-09
4.32880620675e-05
-4.73141571325e-09
4.32910575668e-05
-7.45120577981e-09
4.32956548479e-05
-1.16876330302e-08
4.33027328563e-05
-1.83155924497e-08
4.33136736981e-05
-2.87433601192e-08
4.3330635022e-05
-4.5272169567e-08
4.33569253344e-05
-7.17083116579e-08
4.33981130264e-05
-1.1441790134e-07
4.34630453135e-05
-1.84430093815e-07
4.35654378767e-05
-3.01385163382e-07
4.37252297947e-05
-5.00805143261e-07
4.39669906062e-05
-8.46887016814e-07
4.43073430765e-05
-1.44987219738e-06
4.47075266828e-05
-2.48280957799e-06
4.49265746589e-05
-4.19061744164e-06
-6.57495763658e-06
4.43970817797e-05
5.27351378462e-05
6.17347432895e-06
5.5730934061e-05
1.28850776051e-05
5.73114738033e-05
1.46955942832e-05
5.76109913878e-05
1.37529715683e-05
5.7133522487e-05
1.16346820189e-05
5.63194683872e-05
9.26506545014e-06
5.54489887441e-05
7.09364776439e-06
5.46629787413e-05
5.2828761776e-06
5.4013683696e-05
3.85198604951e-06
5.35061528014e-05
2.75992896083e-06
5.31242572266e-05
1.94680989529e-06
5.2844987955e-05
1.35287943123e-06
5.2645441959e-05
9.2602191216e-07
5.25057179733e-05
6.23727575631e-07
5.24097235105e-05
4.12677470056e-07
5.23450178744e-05
2.67450986131e-07
5.23022804964e-05
1.69042337282e-07
5.22746938183e-05
1.03476944472e-07
5.2257369734e-05
6.06307293214e-08
5.224686146e-05
3.32682243036e-08
5.2240762103e-05
1.62913619442e-08
5.22374534817e-05
6.18356110799e-09
5.22359549528e-05
5.16275721521e-10
5.22354470248e-05
-2.42275088021e-09
5.22355119371e-05
-3.68547715066e-09
5.22358573444e-05
-3.98227511126e-09
5.22363115143e-05
-3.76238664799e-09
5.22367777971e-05
-3.300296423e-09
5.22372050525e-05
-2.7566151623e-09
5.22375705549e-05
-2.22137249877e-09
5.22378676274e-05
-1.73942545863e-09
5.22380989836e-05
-1.32871234402e-09
5.22382751043e-05
-9.92206845277e-10
5.22384078233e-05
-7.25190797415e-10
5.22385081208e-05
-5.14976497193e-10
5.22385929049e-05
-3.53966490927e-10
5.2238658473e-05
-2.3568500489e-10
5.223870089e-05
-1.51432967066e-10
5.22387336923e-05
-9.31491000136e-11
5.22387492633e-05
-3.8190181085e-11
5.22387547036e-05
-6.55937649651e-13
5.22387525415e-05
2.75246935326e-11
5.22387446588e-05
4.87215526287e-11
5.22387324011e-05
6.53640564265e-11
5.22387165573e-05
7.91425091736e-11
5.2238697755e-05
9.13504235573e-11
5.22386765382e-05
1.02663334704e-10
5.22386535578e-05
1.1323921695e-10
5.22386301335e-05
1.22647523744e-10
5.22386041998e-05
1.34448989459e-10
5.22385776631e-05
1.4437651049e-10
5.22385515975e-05
1.52394123122e-10
5.22385275934e-05
1.57002088041e-10
5.22385083117e-05
1.55435132176e-10
5.22384997188e-05
1.42031800817e-10
5.22385091883e-05
1.10577605239e-10
5.22385416031e-05
5.58463249728e-11
5.2238620418e-05
-5.16851027611e-11
5.22387423111e-05
-2.02375526888e-10
5.22389413014e-05
-4.50779765755e-10
5.22392812259e-05
-8.6734476125e-10
5.22398038801e-05
-1.59052722408e-09
5.22405828578e-05
-2.60553832342e-09
5.22417514157e-05
-4.14217732393e-09
5.22435129484e-05
-6.49326739191e-09
5.22461690413e-05
-1.01076565263e-08
5.22501719624e-05
-1.56908905756e-08
5.22562132596e-05
-2.43571441977e-08
5.22653519953e-05
-3.7882458262e-08
5.22792058212e-05
-5.9126461405e-08
5.2300232716e-05
-9.27355813664e-08
5.23321480491e-05
-1.46333522828e-07
5.23802941775e-05
-2.32576458087e-07
5.24515945771e-05
-3.72685809645e-07
5.25529081417e-05
-6.02118910045e-07
5.26847728647e-05
-9.78751903401e-07
5.28249556389e-05
-1.59005503028e-06
5.28919699811e-05
-2.54982393524e-06
5.26733798395e-05
-3.97202717437e-06
-5.76612602793e-06
5.1864548239e-05
5.19834863217e-05
4.18998779085e-06
5.50586636362e-05
9.80990004896e-06
5.7638612804e-05
1.21156450271e-05
5.93259028343e-05
1.20656816222e-05
6.02280151074e-05
1.07325699987e-05
6.05929266382e-05
8.90015429381e-06
6.06482839667e-05
7.03829088954e-06
6.05531899146e-05
5.37797070018e-06
6.04029556806e-05
4.00222069645e-06
6.02479154153e-05
2.91496953814e-06
6.01107900287e-05
2.08393548867e-06
5.99990305726e-05
1.4646390074e-06
5.99125154304e-05
1.01253713241e-06
5.98479235748e-05
6.88319504889e-07
5.98010200876e-05
4.59581068656e-07
5.97677355776e-05
3.00735664902e-07
5.97445944191e-05
1.92183716287e-07
5.9728816104e-05
1.19255517516e-07
5.97182681812e-05
7.11789160162e-08
5.97113621888e-05
4.01744555431e-08
5.97069430123e-05
2.07107456525e-08
5.97042092558e-05
8.91748808279e-09
5.97026003149e-05
2.1253303602e-09
5.97016958271e-05
-1.51819621706e-09
5.97012375773e-05
-3.22713793486e-09
5.97010481053e-05
-3.79270874112e-09
5.97010118611e-05
-3.72606181835e-09
5.97010562121e-05
-3.34452692182e-09
5.97011374024e-05
-2.83769776588e-09
5.97012296846e-05
-2.31365360774e-09
5.97013193213e-05
-1.82898421089e-09
5.97013994914e-05
-1.40901151271e-09
5.97014690935e-05
-1.0616630086e-09
5.97015286055e-05
-7.84437811864e-10
5.97015789025e-05
-5.65001725672e-10
5.97016187563e-05
-3.93756908687e-10
5.97016466389e-05
-2.63435052732e-10
5.97016619765e-05
-1.66728288335e-10
5.9701660506e-05
-9.15784533776e-11
5.9701652679e-05
-3.01627671579e-11
5.97016463228e-05
5.94233350796e-12
5.97016373931e-05
3.67255761996e-11
5.97016271459e-05
5.91131158323e-11
5.9701615545e-05
7.67069236521e-11
5.97016016666e-05
9.2609843623e-11
5.97015853712e-05
1.07146731043e-10
5.97015667833e-05
1.20683129665e-10
5.97015459977e-05
1.33372638685e-10
5.97015226792e-05
1.45261140482e-10
5.97015005131e-05
1.56207605428e-10
5.97014794511e-05
1.65288610381e-10
5.97014606956e-05
1.7123562576e-10
5.97014458753e-05
1.72030937146e-10
5.97014363938e-05
1.65239702386e-10
5.97014301742e-05
1.48119047543e-10
5.97014217422e-05
1.18954169717e-10
5.97014285407e-05
4.95854540868e-11
5.97014405515e-05
-6.48018415879e-11
5.9701529948e-05
-2.92440825501e-10
5.97017223269e-05
-6.44019423778e-10
5.97020249961e-05
-1.17070556957e-09
5.9702415924e-05
-1.98200356389e-09
5.97029997835e-05
-3.18979849626e-09
5.97038588756e-05
-5.00172824221e-09
5.97051073807e-05
-7.74234064801e-09
5.97069108598e-05
-1.19114377365e-08
5.97095075825e-05
-1.82878058554e-08
5.97132418245e-05
-2.80916539282e-08
5.97186036179e-05
-4.32446755622e-08
5.97262740916e-05
-6.67974132244e-08
5.97371549837e-05
-1.03616837512e-07
5.97523089646e-05
-1.6148772643e-07
5.97725735975e-05
-2.52841299792e-07
5.97973568873e-05
-3.97469209891e-07
5.98215018502e-05
-6.2626379246e-07
5.98281342657e-05
-9.85384200024e-07
5.97752194285e-05
-1.53713999923e-06
5.95748545214e-05
-2.34945904526e-06
5.90692612318e-05
-3.46643399485e-06
-4.79518290519e-06
5.80983181056e-05
5.14373052453e-05
2.75268236096e-06
5.42658203025e-05
6.98138480214e-06
5.72496429275e-05
9.13182235896e-06
5.97900273693e-05
9.52529728818e-06
6.17201280883e-05
8.80246954651e-06
6.30883033601e-05
7.53197940813e-06
6.40167172949e-05
6.10987740538e-06
6.4629237455e-05
4.76545098349e-06
6.50258047059e-05
3.60565381952e-06
6.52790794719e-05
2.66169503432e-06
6.5438974628e-05
1.9240405095e-06
6.55386915108e-05
1.36492224157e-06
6.55999300783e-05
9.51298636978e-07
6.56367449469e-05
6.51504713273e-07
6.56581961642e-05
4.38129976976e-07
6.56701045834e-05
2.88827436541e-07
6.56761940862e-05
1.86094455714e-07
6.56788306953e-05
1.16619171893e-07
6.56795014408e-05
7.05084290386e-08
6.56791255173e-05
4.05505988958e-08
6.56782583767e-05
2.15780681574e-08
6.56772276754e-05
9.94832161418e-09
6.56762185966e-05
3.13449784873e-09
6.56753094536e-05
-6.08984855638e-10
6.56745408821e-05
-2.45849808589e-09
6.56739126486e-05
-3.16442031605e-09
6.56734138676e-05
-3.22725560004e-09
6.56730270939e-05
-2.95772295388e-09
6.56727333428e-05
-2.54390866494e-09
6.56725143312e-05
-2.09476489822e-09
6.56723541085e-05
-1.66879482917e-09
6.56722388789e-05
-1.29387966452e-09
6.56721566629e-05
-9.79484655592e-10
6.56720967774e-05
-7.24607320547e-10
6.56720535375e-05
-5.21725581417e-10
6.56720225603e-05
-3.62794001339e-10
6.56719977664e-05
-2.38592373926e-10
6.56719764719e-05
-1.45264149313e-10
6.56719617805e-05
-7.66307253549e-11
6.56719603017e-05
-2.84112176956e-11
6.56719589381e-05
7.47014067939e-12
6.56719518819e-05
4.41283711188e-11
6.56719419771e-05
6.91119633983e-11
6.56719294828e-05
8.90853533327e-11
6.56719153386e-05
1.06500172e-10
6.56718996222e-05
1.22511747433e-10
6.56718822133e-05
1.37642615667e-10
6.56718630953e-05
1.52034613451e-10
6.567184285e-05
1.65122226892e-10
6.56718236514e-05
1.75069113223e-10
6.56718044468e-05
1.84221091397e-10
6.56717856908e-05
1.89678851318e-10
6.56717686242e-05
1.88894840638e-10
6.56717549964e-05
1.78519767056e-10
6.56717485548e-05
1.54088723802e-10
6.56717576188e-05
1.09974262038e-10
6.56717622763e-05
4.43406720009e-11
6.56718001221e-05
-1.01987877062e-10
6.5671868351e-05
-3.60964340803e-10
6.56719689858e-05
-7.45097009969e-10
6.56721222719e-05
-1.32446655219e-09
6.56723354279e-05
-2.19554476674e-09
6.56726252443e-05
-3.47996517724e-09
6.5673008435e-05
-5.38533800471e-09
6.5673496221e-05
-8.23060710696e-09
6.56740868365e-05
-1.25022395529e-08
6.56747504639e-05
-1.89514173049e-08
6.56754020068e-05
-2.87432299704e-08
6.56758413682e-05
-4.3684213539e-08
6.5675642147e-05
-6.65984838819e-08
6.56739363827e-05
-1.01911426295e-07
6.56689924266e-05
-1.56544112525e-07
6.5657279498e-05
-2.41128707792e-07
6.5631674083e-05
-3.71863995932e-07
6.55780335693e-05
-5.72623264432e-07
6.54691399606e-05
-8.76490389957e-07
6.52558533815e-05
-1.32385320712e-06
6.48581775748e-05
-1.9517830711e-06
6.41637296823e-05
-2.7719862594e-06
-3.71390076213e-06
6.30824473729e-05
5.10850422632e-05
1.66763996805e-06
5.36118443664e-05
4.45458258245e-06
5.66873162907e-05
6.05635043836e-06
5.96894464272e-05
6.5231672863e-06
6.22997272968e-05
6.19218895686e-06
6.44136892063e-05
5.41801787018e-06
6.60471857345e-05
4.47638128607e-06
6.72686176455e-05
3.54401945029e-06
6.81598969773e-05
2.7143747742e-06
6.87977637908e-05
2.02382839827e-06
6.92467483256e-05
1.47505606735e-06
6.95579672929e-05
1.05370331668e-06
6.97704341181e-05
7.38831846098e-07
6.99131773874e-05
5.08761497201e-07
7.00073888059e-05
3.43918673063e-07
7.00682987958e-05
2.27917635571e-07
7.01067013485e-05
1.47692149426e-07
7.01301442218e-05
9.31765659279e-08
7.0143833915e-05
5.68189897237e-08
7.0151310549e-05
3.30741834952e-08
7.01549435152e-05
1.79452816704e-08
7.01562917337e-05
8.60023601871e-09
7.01563640129e-05
3.06231649984e-09
7.01557723327e-05
-1.72292998024e-11
7.015491175e-05
-1.59792682889e-09
7.0153988434e-05
-2.24109286536e-09
7.01531200961e-05
-2.35887959172e-09
7.01523603776e-05
-2.19797884815e-09
7.01517265081e-05
-1.90996300701e-09
7.01512155906e-05
-1.58379707952e-09
7.01508147124e-05
-1.26787189639e-09
7.01505069566e-05
-9.86028263214e-10
7.01502746993e-05
-7.47121299694e-10
7.01501017649e-05
-5.51560882156e-10
7.01499752375e-05
-3.94939857172e-10
7.01498843434e-05
-2.71623844125e-10
7.0149821976e-05
-1.75944649388e-10
7.01497807096e-05
-1.03690370139e-10
7.01497525246e-05
-4.81340465379e-11
7.01497229183e-05
1.47979299647e-12
7.01496997912e-05
3.07370442075e-11
7.01496868882e-05
5.69056227566e-11
7.01496764791e-05
7.92878185636e-11
7.01496665839e-05
9.86242956368e-11
7.01496564647e-05
1.16187419478e-10
7.01496457365e-05
1.3268628379e-10
7.01496343072e-05
1.48438930719e-10
7.014962227e-05
1.63397074183e-10
7.01496096711e-05
1.77237151949e-10
7.01495950759e-05
1.89356459883e-10
7.01495803262e-05
1.98761527002e-10
7.0149566309e-05
2.03642972985e-10
7.01495538394e-05
2.01654171773e-10
7.01495433648e-05
1.89496839532e-10
7.01495342343e-05
1.63445864682e-10
7.01495226404e-05
1.20446530399e-10
7.01495187273e-05
4.86470128014e-11
7.01495060741e-05
-9.02356018815e-11
7.01495192806e-05
-3.74880458165e-10
7.01495439039e-05
-7.70346382537e-10
7.01495689413e-05
-1.34990864552e-09
7.01495732636e-05
-2.20022153715e-09
7.01495301241e-05
-3.43729930452e-09
7.0149386498e-05
-5.2421388919e-09
7.01490437774e-05
-7.88808144494e-09
7.01483271441e-05
-1.17856712136e-08
7.01469352161e-05
-1.7559468243e-08
7.01443569983e-05
-2.61650072996e-08
7.01397193134e-05
-3.90466693678e-08
7.0131542427e-05
-5.84218186135e-08
7.0117338238e-05
-8.77074622768e-08
7.00929553136e-05
-1.32161463725e-07
7.00513098475e-05
-1.99483451831e-07
6.99804366284e-05
-3.00990848291e-07
6.98603838192e-05
-4.52570346711e-07
6.96587299357e-05
-6.74836367258e-07
6.9325599334e-05
-9.90722622558e-07
6.87915035826e-05
-1.41768722398e-06
6.79739469928e-05
-1.95442978735e-06
-2.55492908955e-06
6.68149751183e-05
5.08804131236e-05
7.87226756349e-07
5.31704660715e-05
2.16452959016e-06
5.62177496714e-05
3.00906689805e-06
5.94382698303e-05
3.30264731171e-06
6.24449699182e-05
3.18548917757e-06
6.50382536689e-05
2.82473448989e-06
6.7154867585e-05
2.35976775599e-06
6.88135663779e-05
1.88532098959e-06
7.00731725863e-05
1.45476880135e-06
7.10056696681e-05
1.09133145927e-06
7.16812660098e-05
7.99459786116e-07
7.21614253811e-05
5.73543950751e-07
7.24966063298e-05
4.03650893172e-07
7.27264829544e-05
2.78884910558e-07
7.28812820045e-05
1.89119729747e-07
7.29834719894e-05
1.25727821996e-07
7.30494160734e-05
8.17483060187e-08
7.30908185057e-05
5.17743910144e-08
7.3115912758e-05
3.1724974079e-08
7.31303975395e-05
1.85895942394e-08
7.3138152472e-05
1.0190495797e-08
7.31417730827e-05
4.97974421251e-09
7.31429609379e-05
1.87456077756e-09
7.31428146455e-05
1.29083930075e-10
7.31419914791e-05
-7.74805030787e-10
7.31409086158e-05
-1.158321273e-09
7.31397938041e-05
-1.2441515005e-09
7.3138766456e-05
-1.17068056339e-09
7.31378789793e-05
-1.02254994387e-09
7.31371453875e-05
-8.50164064606e-10
7.3136558156e-05
-6.80685103847e-10
7.31361000421e-05
-5.27869240398e-10
7.31357501347e-05
-3.97128389708e-10
7.31354878393e-05
-2.89075649166e-10
7.3135294808e-05
-2.01634985715e-10
7.31351553537e-05
-1.31852347991e-10
7.31350561998e-05
-7.64762451209e-11
7.31349848642e-05
-3.20292303867e-11
7.31349318962e-05
5.12245544492e-12
7.31349023128e-05
3.13537810617e-11
7.31348794108e-05
5.39046159451e-11
7.31348626527e-05
7.37147652194e-11
7.3134850253e-05
9.16200610263e-11
7.31348404127e-05
1.08308556938e-10
7.31348318499e-05
1.24459597778e-10
7.31348236811e-05
1.40394218154e-10
7.31348153687e-05
1.56179413323e-10
7.31348065736e-05
1.71628632585e-10
7.31347971486e-05
1.86244911146e-10
7.31347870215e-05
1.99124392069e-10
7.31347762228e-05
2.09253321524e-10
7.31347648973e-05
2.14865244614e-10
7.31347531325e-05
2.13390172343e-10
7.31347411423e-05
2.01503982865e-10
7.31347294949e-05
1.75281366469e-10
7.31347199181e-05
1.30335667738e-10
7.31347026696e-05
6.52295693095e-11
7.31346806141e-05
-6.88615492494e-11
7.31346398224e-05
-3.35125134909e-10
7.31345747838e-05
-7.06069350226e-10
7.31344619114e-05
-1.23760217331e-09
7.31342580377e-05
-1.99673444647e-09
7.31338952068e-05
-3.07487147836e-09
7.31332586276e-05
-4.60595038791e-09
7.31321556839e-05
-6.78529377169e-09
7.31302649047e-05
-9.89492425483e-09
7.3127058742e-05
-1.43533153042e-08
7.31216826235e-05
-2.07889936491e-08
7.31127250229e-05
-3.00893625663e-08
7.30978825303e-05
-4.35796822589e-08
7.30734483744e-05
-6.32736685603e-08
7.30335280265e-05
-9.22414788726e-08
7.29686130757e-05
-1.34568709618e-07
7.28636924565e-05
-1.96070247267e-07
7.26956097439e-05
-2.84487381279e-07
7.24298798826e-05
-4.09106100397e-07
7.20181644072e-05
-5.79007168614e-07
7.13993011343e-05
-7.98824018856e-07
7.05077884675e-05
-1.06291723426e-06
-1.34620775765e-06
6.92990669344e-05
5.07871725585e-05
5.41506372134e-11
5.29516498299e-05
5.23391303823e-11
5.59606885266e-05
2.83087932821e-11
5.92633221625e-05
1.38914813865e-11
6.24488089769e-05
2.67064940099e-12
6.52735497961e-05
-5.97157901847e-12
6.76333295712e-05
-1.16864080392e-11
6.95186653155e-05
-1.44933310848e-11
7.09734491154e-05
-1.48479669582e-11
7.20647939791e-05
-1.3345682259e-11
7.28642643722e-05
-1.06158034942e-11
7.34378155833e-05
-7.2996216112e-12
7.38414704744e-05
-4.02968225495e-12
7.41203568311e-05
-1.42744017698e-12
7.43094767348e-05
-6.53907032917e-14
7.44352050806e-05
-3.26094156061e-13
7.45169561137e-05
-2.46781066519e-12
7.45687370382e-05
-6.25874548857e-12
7.46004733276e-05
-1.10718497024e-11
7.46190790496e-05
-1.59406230663e-11
7.4629289415e-05
-1.97473265801e-11
7.46342906263e-05
-2.14047021422e-11
7.46361856478e-05
-2.04394186785e-11
7.46363328666e-05
-1.81508677201e-11
7.46355737268e-05
-1.57068459136e-11
7.46344279909e-05
-1.26657286823e-11
7.46331929667e-05
-9.15138869639e-12
7.46320276239e-05
-5.32855112164e-12
7.46310056568e-05
-6.69515722875e-13
7.46301523673e-05
3.21793406274e-12
7.46294640241e-05
7.65690082295e-12
7.46289238041e-05
1.24748330319e-11
7.46285092553e-05
1.76284891465e-11
7.46281973256e-05
2.31678413137e-11
7.46279667654e-05
2.92828297954e-11
7.4627799191e-05
3.60937170558e-11
7.46276793971e-05
4.37002565343e-11
7.46275957654e-05
5.20539353411e-11
7.46275401224e-05
6.10754467953e-11
7.46275012066e-05
7.04696037086e-11
7.46274751481e-05
8.01289779306e-11
7.46274580075e-05
9.09090924259e-11
7.46274468367e-05
1.0278089503e-10
7.46274393813e-05
1.15644255681e-10
7.46274340824e-05
1.2947596633e-10
7.46274299028e-05
1.44127345155e-10
7.46274261718e-05
1.59369434732e-10
7.46274224531e-05
1.74847806196e-10
7.46274183931e-05
1.89939182861e-10
7.46274136238e-05
2.03661645935e-10
7.46274079273e-05
2.14864321601e-10
7.46274011605e-05
2.21761944042e-10
7.46273927993e-05
2.21865106057e-10
7.4627382166e-05
2.12140462165e-10
7.46273679806e-05
1.8904973855e-10
7.46273484971e-05
1.49171089924e-10
7.46273230046e-05
9.0076076785e-11
7.46272776378e-05
-2.37152810834e-11
7.46271896693e-05
-2.48073469824e-10
7.46270543775e-05
-5.71682934846e-10
7.46268321423e-05
-1.01608351843e-09
7.46264621742e-05
-1.6274250554e-09
7.46258484093e-05
-2.46155100888e-09
7.46248341746e-05
-3.59210399704e-09
7.46231647186e-05
-5.11606755162e-09
7.46204238598e-05
-7.15413709894e-09
7.46159443424e-05
-9.87387045143e-09
7.46086690986e-05
-1.3513963531e-08
7.45968634642e-05
-1.82840510595e-08
7.45777284451e-05
-2.44450068858e-08
7.45468453936e-05
-3.23909358667e-08
7.4497490199e-05
-4.28864890583e-08
7.44189343378e-05
-5.60130166486e-08
7.42947893999e-05
-7.19253720359e-08
7.41006915176e-05
-9.03895077393e-08
7.3801846477e-05
-1.10260771381e-07
7.3351625555e-05
-1.28786105535e-07
7.26936024102e-05
-1.40800923248e-07
7.17698085088e-05
-1.39123433099e-07
-1.15272337589e-07
7.05388729334e-05
5.0787171547e-05
-7.87117395966e-07
5.29516490535e-05