/*--------------------------------*- C++ -*----------------------------------*\
| =========                 |                                                 |
| \\      /  F ield         | OpenFOAM: The Open Source CFD Toolbox           |
|  \\    /   O peration     | Version:  2106                                  |
|   \\  /    A nd           | Website:  www.openfoam.com                      |
|    \\/     M anipulation  |                                                 |
\*---------------------------------------------------------------------------*/
FoamFile
{
    version     2.0;
    format      ascii;
    arch        "LSB;label=32;scalar=64";
    class       surfaceScalarField;
    location    "0.1";
    object      phi;
}
// * * * * * * * * * * * * * * * * * * * * * * * * * * * * * * * * * * * * * //

dimensions      [0 3 -1 0 0 0 0];

oriented        oriented;

internalField   nonuniform List<scalar> 
799
(
1.70437e-32
4.40769e-32
5.64764e-32
4.48433e-32
1.88045e-32
-4.88103e-32
-1.09166e-31
-1.56015e-31
-1.67032e-31
-1.30233e-31
-7.53947e-32
-1.40757e-32
2.34424e-32
3.22281e-32
9.68513e-33
-3.05011e-32
-8.23501e-32
-1.35662e-31
-1.76595e-31
-2.05173e-31
-1.97603e-31
-1.62058e-31
-1.0143e-31
-3.1194e-32
8.86981e-33
1.74479e-32
-2.47384e-32
-9.58812e-32
-1.62695e-31
-2.15806e-31
-2.19169e-31
-1.92382e-31
-1.46569e-31
-9.20339e-32
-6.76569e-32
-5.70881e-32
-7.47931e-32
-1.13196e-31
-1.43577e-31
-1.8077e-31
-1.90229e-31
-1.7823e-31
-1.55236e-31
-1.08984e-31
-8.41915e-32
-7.43281e-32
-9.06553e-32
-1.40022e-31
-1.80371e-31
-2.17045e-31
-2.19347e-31
-1.85862e-31
-1.43025e-31
-8.9048e-32
-6.49431e-32
-7.13923e-32
-1.04772e-31
-1.64124e-31
-2.09774e-31
-2.35161e-31
-2.22215e-31
-1.69273e-31
-1.07363e-31
-5.26129e-32
-3.99691e-32
-8.0871e-32
-1.54813e-31
-2.38466e-31
-2.84011e-31
-2.66603e-31
-1.95313e-31
-9.36431e-32
-1.72615e-32
-7.70372e-34
-4.78684e-32
-1.41646e-31
-2.28135e-31
-2.72733e-31
-2.61169e-31
-2.01843e-31
-1.35512e-31
-8.64024e-32
-7.09201e-32
-8.57972e-32
-1.09775e-31
-1.35566e-31
-1.5498e-31
-1.72948e-31
-1.93071e-31
-2.05149e-31
-2.0299e-31
-1.71673e-31
-1.1892e-31
-6.53131e-32
-3.24519e-32
-5.11395e-32
-1.09528e-31
-1.91098e-31
-2.60249e-31
-2.73401e-31
-2.3791e-31
-1.51921e-31
-6.08756e-32
-7.41934e-33
1.84017e-33
-5.58854e-32
-1.34923e-31
-2.0848e-31
-2.52175e-31
-2.34942e-31
-1.90875e-31
-1.27887e-31
-8.1017e-32
-7.22103e-32
-8.34294e-32
-1.13828e-31
-1.30453e-31
-1.27739e-31
-1.14787e-31
-1.00684e-31
-1.10394e-31
-1.40679e-31
-1.82004e-31
-2.12617e-31
-2.10989e-31
-1.76113e-31
-1.16541e-31
-5.68781e-32
-1.88659e-32
-1.3307e-32
-4.30584e-32
-9.52417e-32
-1.56015e-31
-2.1115e-31
-2.42834e-31
-2.45392e-31
-2.11502e-31
-1.47189e-31
-7.3275e-32
-8.32601e-33
1.71308e-32
-5.26692e-33
-6.83104e-32
-1.52344e-31
-2.17027e-31
-2.43369e-31
-2.19725e-31
-1.59332e-31
-9.64599e-32
-5.30082e-32
-5.20893e-32
-8.65269e-32
-1.33396e-31
-1.70358e-31
-1.70757e-31
-1.37737e-31
-8.6809e-32
-4.4966e-32
-4.20334e-32
-8.19483e-32
-1.52933e-31
-2.19641e-31
-2.4645e-31
-2.15411e-31
-1.35085e-31
-4.55904e-32
1.26336e-32
4.85094e-33
-6.15214e-32
-1.51345e-31
-2.21974e-31
-2.28732e-31
-1.82204e-31
-1.04596e-31
-4.17626e-32
-3.51934e-32
-7.10085e-32
-1.39728e-31
-1.89169e-31
-1.91165e-31
-1.54756e-31
-8.36185e-32
-3.39881e-32
-2.03748e-32
-4.92677e-32
-1.16448e-31
-1.72217e-31
-2.08471e-31
-2.00577e-31
-1.53304e-31
-9.7744e-32
-4.15925e-32
-1.83475e-32
-2.66689e-32
-5.79998e-32
-1.06325e-31
-1.43708e-31
-1.67716e-31
-1.71281e-31
-1.53453e-31
-1.26785e-31
-9.11409e-32
-5.72639e-32
-3.46427e-32
-2.72986e-32
-4.57002e-32
-8.45703e-32
-1.30063e-31
-1.65722e-31
-1.6783e-31
-1.3273e-31
-7.3469e-32
-1.50177e-32
7.34712e-33
-1.97156e-32
-8.60063e-32
-1.5966e-31
-1.95173e-31
-1.67312e-31
-8.27262e-32
2.23348e-32
9.13763e-32
8.39705e-32
1.04572e-34
-1.26151e-31
-2.27859e-31
-2.49588e-31
-1.79166e-31
-3.93206e-32
9.84993e-32
1.70995e-31
1.50246e-31
4.13227e-32
-9.03787e-32
-1.85264e-31
-2.01371e-31
-1.26181e-31
-7.88578e-33
1.07667e-31
1.71942e-31
1.60708e-31
9.85798e-32
1.46151e-32
-4.60626e-32
-5.47408e-32
-1.41762e-32
5.8613e-32
1.29339e-31
1.68996e-31
1.68183e-31
1.4116e-31
1.12101e-31
1.11546e-31
1.50235e-31
2.09371e-31
2.6698e-31
2.86991e-31
2.61953e-31
2.16475e-31
1.78325e-31
1.91104e-31
2.62576e-31
3.66926e-31
4.71597e-31
5.29793e-31
5.29197e-31
4.92309e-31
4.46762e-31
4.34634e-31
4.70334e-31
5.36229e-31
6.1977e-31
6.90265e-31
7.40914e-31
7.8576e-31
8.22119e-31
8.68228e-31
9.17162e-31
9.59259e-31
1.00476e-30
1.04588e-30
1.09909e-30
1.16617e-30
1.23581e-30
1.30709e-30
1.36677e-30
1.42583e-30
1.50072e-30
1.6033e-30
1.73534e-30
1.87321e-30
1.98582e-30
2.04882e-30
2.06988e-30
2.0809e-30
2.13363e-30
2.26307e-30
2.46283e-30
2.69948e-30
2.90687e-30
3.04682e-30
3.11686e-30
3.14934e-30
3.21178e-30
3.33871e-30
3.54198e-30
3.791e-30
4.0302e-30
4.23355e-30
4.3873e-30
4.52245e-30
4.67829e-30
4.87287e-30
5.11515e-30
5.37331e-30
5.6222e-30
5.84974e-30
6.05551e-30
6.27348e-30
6.52136e-30
6.81048e-30
7.13483e-30
7.45955e-30
7.77077e-30
8.05409e-30
8.32125e-30
8.60746e-30
8.92733e-30
9.30327e-30
9.71935e-30
1.01436e-29
1.05564e-29
1.09253e-29
1.12684e-29
1.16106e-29
1.19824e-29
1.24261e-29
1.29296e-29
1.34801e-29
1.40338e-29
1.45383e-29
1.49786e-29
1.53576e-29
1.56785e-29
1.61601e-29
1.67514e-29
1.81702e-29
2.06531e-29
2.43291e-29
3.12669e-29
3.4012e-29
3.68618e-29
1.98535e-29
-2.28331e-29
-7.41404e-29
-1.79663e-28
-1.7023e-28
-1.0936e-28
1.78739e-28
8.23054e-28
1.18851e-27
1.83108e-27
1.06957e-27
-7.48203e-28
-3.0234e-27
-7.52969e-27
-7.19998e-27
-5.91755e-27
1.76192e-27
1.689e-26
2.26817e-26
3.30626e-26
1.66622e-26
-1.35971e-26
-4.09933e-26
-9.04815e-26
-7.13083e-26
-4.21806e-26
3.15845e-26
1.54639e-25
1.6275e-25
1.92012e-25
5.43257e-26
-1.45586e-25
-2.41548e-25
-4.15696e-25
-2.36509e-25
-3.16286e-26
2.19169e-25
5.8921e-25
4.55171e-25
3.83049e-25
-3.70692e-26
-5.43987e-25
-5.80034e-25
-7.54237e-25
-2.54563e-25
2.23643e-25
5.06863e-25
9.15307e-25
5.06874e-25
2.23659e-25
-2.54549e-25
-7.54232e-25
-5.8004e-25
-5.43999e-25
-3.70832e-26
3.8304e-25
4.55169e-25
5.89214e-25
2.19176e-25
-3.16228e-26
-2.36507e-25
-4.15698e-25
-2.41553e-25
-1.4559e-25
5.43221e-26
1.9201e-25
1.6275e-25
1.54639e-25
3.15848e-26
-4.21809e-26
-7.1309e-26
-9.04822e-26
-4.09943e-26
-1.35979e-26
1.66613e-26
3.30616e-26
2.26808e-26
1.68891e-26
1.76115e-27
-5.91822e-27
-7.20057e-27
-7.53022e-27
-3.02396e-27
-7.48778e-28
1.06894e-27
1.83042e-27
1.18784e-27
8.22399e-28
1.78158e-28
-1.09861e-28
-1.70629e-28
-1.79996e-28
-7.44716e-29
-2.32083e-29
1.9373e-29
3.62993e-29
3.34174e-29
3.0714e-29
2.39046e-29
2.03656e-29
1.80034e-29
1.66327e-29
1.60012e-29
1.54356e-29
1.50044e-29
1.45498e-29
1.40942e-29
1.36289e-29
1.31732e-29
1.27365e-29
1.23328e-29
1.19542e-29
1.15775e-29
1.11815e-29
1.07518e-29
1.02977e-29
9.85441e-30
9.44906e-30
9.10827e-30
8.82517e-30
8.57032e-30
8.31787e-30
8.03189e-30
7.71449e-30
7.37329e-30
7.02869e-30
6.71222e-30
6.42981e-30
6.19511e-30
5.99673e-30
5.81483e-30
5.63229e-30
5.42205e-30
5.17938e-30
4.91418e-30
4.64896e-30
4.41797e-30
4.24364e-30
4.11968e-30
4.02746e-30
3.92374e-30
3.77348e-30
3.57766e-30
3.34296e-30
3.12056e-30
2.94663e-30
2.83164e-30
2.78021e-30
2.7404e-30
2.68138e-30
2.57574e-30
2.4104e-30
2.22486e-30
2.04464e-30
1.9113e-30
1.84648e-30
1.83198e-30
1.84365e-30
1.83211e-30
1.76047e-30
1.62337e-30
1.4409e-30
1.26326e-30
1.14546e-30
1.11216e-30
1.1552e-30
1.2275e-30
1.2639e-30
1.22511e-30
1.10172e-30
9.32193e-31
7.74176e-31
6.75547e-31
6.57148e-31
6.96191e-31
7.55157e-31
7.85909e-31
7.68606e-31
7.0397e-31
6.10263e-31
5.2363e-31
4.55492e-31
4.25284e-31
4.22742e-31
4.32986e-31
4.47616e-31
4.3748e-31
4.13025e-31
3.67642e-31
3.17968e-31
2.89738e-31
2.73247e-31
2.8616e-31
2.96565e-31
2.88328e-31
2.62842e-31
2.04325e-31
1.56232e-31
1.27603e-31
1.30319e-31
1.71245e-31
2.06377e-31
2.28533e-31
2.15537e-31
1.68537e-31
1.21105e-31
7.78512e-32
5.98092e-32
5.89124e-32
5.50477e-32
5.25884e-32
4.47839e-32
5.24159e-32
8.88269e-32
1.37318e-31
1.83323e-31
1.82384e-31
1.15908e-31
5.00591e-33
-1.18191e-31
-1.79802e-31
-1.46506e-31
-2.69784e-32
1.40757e-31
2.60235e-31
2.81089e-31
1.83454e-31
-1.89866e-33
-1.73713e-31
-2.69099e-31
-2.33544e-31
-8.18099e-32
1.00086e-31
2.44669e-31
2.69021e-31
1.69838e-31
3.62391e-33
-1.65878e-31
-2.42974e-31
-2.10324e-31
-9.03073e-32
6.41508e-32
1.6399e-31
1.85798e-31
1.22259e-31
1.06107e-32
-8.44911e-32
-1.43194e-31
-1.40097e-31
-9.62867e-32
-4.12721e-32
1.5724e-32
4.77119e-32
6.47835e-32
6.35166e-32
4.24906e-32
1.44362e-32
-2.71142e-32
-6.32369e-32
-8.93744e-32
-9.87521e-32
-8.52611e-32
-5.91938e-32
-2.00259e-32
1.72175e-32
4.94949e-32
6.47124e-32
5.66675e-32
2.89582e-32
-2.14939e-32
-6.75738e-32
-1.0465e-31
-1.1442e-31
-9.06218e-32
-5.50605e-32
-3.78189e-33
3.1596e-32
4.91368e-32
5.13321e-32
2.56111e-32
-1.96806e-33
-3.96125e-32
-7.30292e-32
-8.7532e-32
-9.07564e-32
-6.49302e-32
-2.79269e-32
1.12516e-32
4.28249e-32
4.60576e-32
3.02682e-32
-4.9367e-33
-4.36644e-32
-7.02114e-32
-8.13058e-32
-6.93806e-32
-4.33033e-32
-1.07846e-32
1.70655e-32
3.04673e-32
2.47672e-32
4.62524e-33
-2.00718e-32
-3.89865e-32
-3.90588e-32
-3.03481e-32
-1.64131e-32
-1.18445e-32
-2.46685e-32
-3.55515e-32
-4.22441e-32
-2.19195e-32
1.76604e-32
5.12011e-32
6.55358e-32
3.11399e-32
-3.00474e-32
-9.2085e-32
-1.21997e-31
-8.96137e-32
-1.85401e-32
6.64656e-32
1.15104e-31
1.01117e-31
3.71012e-32
-5.21611e-32
-1.10562e-31
-1.15727e-31
-6.51431e-32
1.53044e-32
7.51752e-32
9.32617e-32
5.60797e-32
-9.79666e-33
-6.44404e-32
-8.48114e-32
-5.25177e-32
6.95848e-33
6.26303e-32
8.74878e-32
6.04644e-32
2.64119e-33
-6.13513e-32
-1.00575e-31
-8.93225e-32
-3.96908e-32
3.19057e-32
9.46835e-32
1.17315e-31
9.97767e-32
4.39345e-32
-2.7528e-32
-8.34891e-32
-1.14364e-31
-1.03097e-31
-5.69601e-32
5.85368e-33
7.52835e-32
1.20705e-31
1.33057e-31
1.0595e-31
3.90708e-32
-3.89113e-32
-1.09148e-31
-1.40005e-31
-1.14393e-31
-4.2861e-32
5.59618e-32
1.36992e-31
1.67195e-31
1.33137e-31
4.46945e-32
-5.50485e-32
-1.23431e-31
-1.29221e-31
-6.88791e-32
2.54383e-32
1.10035e-31
1.46015e-31
1.15624e-31
3.98818e-32
-4.46695e-32
-9.7261e-32
-8.83332e-32
-3.10466e-32
5.14344e-32
1.16781e-31
1.28968e-31
9.48265e-32
2.08896e-32
-4.75332e-32
-7.59952e-32
-6.32939e-32
-9.38891e-34
6.41059e-32
1.07046e-31
1.15646e-31
7.32846e-32
2.21753e-32
-2.60772e-32
-4.84138e-32
-2.87881e-32
4.36419e-33
4.94949e-32
8.02849e-32
8.59078e-32
7.78181e-32
5.3453e-32
3.14801e-32
1.84333e-32
1.12276e-32
1.32944e-32
1.57662e-32
1.39841e-32
1.51841e-32
1.53209e-32
2.51527e-32
4.80068e-32
7.19538e-32
1.01141e-31
1.09737e-31
9.57969e-32
6.07037e-32
2.6679e-33
-4.09531e-32
-6.67338e-32
-5.18366e-32
1.69798e-33
6.5889e-32
1.29234e-31
1.52832e-31
1.37683e-31
8.5916e-32
2.23099e-32
-2.66644e-32
-4.71409e-32
-2.58135e-32
4.9367e-33
5.37665e-32
7.4219e-32
7.49142e-32
6.79582e-32
2.3206e-32
1.38765e-32
-1.85318e-32
-2.46758e-32
-4.69163e-33
)
;

boundaryField
{
    left
    {
        type            calculated;
        value           uniform 0;
    }
    right
    {
        type            calculated;
        value           uniform 0;
    }
    empty
    {
        type            empty;
        value           nonuniform List<scalar> 0();
    }
}


// ************************************************************************* //
