/*--------------------------------*- C++ -*----------------------------------*\
| =========                 |                                                 |
| \\      /  F ield         | OpenFOAM: The Open Source CFD Toolbox           |
|  \\    /   O peration     | Version:  2106                                  |
|   \\  /    A nd           | Website:  www.openfoam.com                      |
|    \\/     M anipulation  |                                                 |
\*---------------------------------------------------------------------------*/
FoamFile
{
    version     2.0;
    format      ascii;
    arch        "LSB;label=32;scalar=64";
    class       surfaceScalarField;
    location    "0.385";
    object      phi;
}
// * * * * * * * * * * * * * * * * * * * * * * * * * * * * * * * * * * * * * //

dimensions      [0 3 -1 0 0 0 0];

oriented        oriented;

internalField   nonuniform List<scalar> 
22100
(
3.38461203916e-05
1.61538796348e-05
2.24572101726e-05
1.13889104667e-05
1.62585534071e-05
6.19865693934e-06
1.27977765106e-05
3.460777073e-06
1.08046426654e-05
1.99313397648e-06
9.60458963771e-06
1.20005311703e-06
8.85132183681e-06
7.53267830692e-07
8.36435296798e-06
4.86968859082e-07
8.04433502957e-06
3.20017890062e-07
7.83284018833e-06
2.11494766867e-07
7.69339700766e-06
1.39443102556e-07
7.60224014004e-06
9.11567979554e-08
7.54347741778e-06
5.87626716384e-08
7.50634060179e-06
3.71367920854e-08
7.48350122441e-06
2.28393843602e-08
7.46998055531e-06
1.35207044712e-08
7.46241610134e-06
7.56451235329e-09
7.45854823795e-06
3.86794245044e-09
7.4568294085e-06
1.71887364225e-09
7.45642291619e-06
4.06599962182e-10
7.45677287604e-06
-3.4983624551e-10
7.45745918786e-06
-6.86166332885e-10
7.45821765289e-06
-7.58310161341e-10
7.45894308104e-06
-7.25263281411e-10
7.45958752319e-06
-6.4426506838e-10
7.46013160111e-06
-5.43891132114e-10
7.4605738673e-06
-4.42075948174e-10
7.46092276058e-06
-3.48713301843e-10
7.4611911714e-06
-2.68255158274e-10
7.46139318504e-06
-2.01868965105e-10
7.46154216469e-06
-1.48855144775e-10
7.46164981305e-06
-1.07650993393e-10
7.46172582645e-06
-7.60968934515e-11
7.461778403e-06
-5.26888997546e-11
7.46181146563e-06
-3.32153265336e-11
7.46183008312e-06
-1.87333191066e-11
7.46183899493e-06
-9.10627575109e-12
7.46184169412e-06
-2.85689513941e-12
7.46184009727e-06
1.44520338123e-12
7.4618353355e-06
4.62087661188e-12
7.46182837895e-06
6.88306560795e-12
7.46181979479e-06
8.53156576685e-12
7.46180993267e-06
9.80835483862e-12
7.46179896113e-06
1.09004903742e-11
7.46178687171e-06
1.20185452732e-11
7.46177355431e-06
1.32547292585e-11
7.46175877807e-06
1.46938408579e-11
7.46174219258e-06
1.6451705849e-11
7.46172339765e-06
1.86253628544e-11
7.46170186473e-06
2.13611582256e-11
7.46167696982e-06
2.47099266472e-11
7.46164803157e-06
2.87518885791e-11
7.46161425739e-06
3.35689525324e-11
7.46157477615e-06
3.92231545458e-11
7.46152872321e-06
4.57418667964e-11
7.4614752873e-06
5.30904435123e-11
7.46141384335e-06
6.10731034713e-11
7.46134433779e-06
6.91322683501e-11
7.46126749729e-06
7.64782643632e-11
7.46118580074e-06
8.13263390688e-11
7.46110566211e-06
7.97802894372e-11
7.46103922832e-06
6.61562885048e-11
7.46099402188e-06
4.49255097349e-11
7.46098947749e-06
4.26323719811e-12
7.46106152456e-06
-7.23304854802e-11
7.46126849318e-06
-2.07192421315e-10
7.46170489002e-06
-4.3653231453e-10
7.46252076232e-06
-8.15954855842e-10
7.46395133196e-06
-1.43063412009e-09
7.46635199254e-06
-2.40074096782e-09
7.47017196659e-06
-3.82002774395e-09
7.47662288418e-06
-6.45093606347e-09
7.48739512648e-06
-1.07722040441e-08
7.50557068292e-06
-1.81755039282e-08
7.53875527765e-06
-3.31845077595e-08
7.607965677e-06
-6.92102663033e-08
7.77461423236e-06
-1.66648402209e-07
8.22948626557e-06
-4.54871874534e-07
9.69698889122e-06
-1.46750243113e-06
-5.45092294694e-06
1.51479121176e-05
5.02175949225e-05
1.5936284942e-05
4.42441119348e-05
1.7362393887e-05
3.77795019193e-05
1.26632672457e-05
3.26461444973e-05
8.59413471468e-06
2.89380923749e-05
5.70118621936e-06
2.63596219297e-05
3.77852360276e-06
2.45875174344e-05
2.52537227891e-06
2.33734752772e-05
1.7010109041e-06
2.25435261347e-05
1.14996688272e-06
2.19782173787e-05
7.76803361833e-07
2.15955148211e-05
5.22145519314e-07
2.13387382747e-05
3.47933245341e-07
2.11684968215e-05
2.2900408603e-07
2.10573393294e-05
1.48294315417e-07
2.09861515735e-05
9.4027237857e-08
2.09416793864e-05
5.79930477496e-08
2.09147977899e-05
3.44463253383e-08
2.08992989249e-05
1.93670646174e-08
2.08910753886e-05
9.94272515734e-09
2.088727533e-05
4.20691530092e-09
2.08862065169e-05
7.19246446617e-10
2.08864524169e-05
-9.31784203433e-10
2.08873240194e-05
-1.62962838899e-09
2.08884636873e-05
-1.86462480958e-09
2.08896371873e-05
-1.81744367474e-09
2.08907203495e-05
-1.62672238639e-09
2.08916581071e-05
-1.37951340698e-09
2.08924357725e-05
-1.12611287713e-09
2.0893061099e-05
-8.93412398898e-10
2.0893553274e-05
-6.93977944447e-10
2.08939370675e-05
-5.32692983608e-10
2.08942385058e-05
-4.09154612663e-10
2.08944492686e-05
-2.87062460509e-10
2.08945960851e-05
-1.99718467834e-10
2.08946962114e-05
-1.33745595422e-10
2.08947613143e-05
-8.43109914677e-11
2.0894801655e-05
-4.98152200034e-11
2.08948253974e-05
-2.69313136567e-11
2.08948373512e-05
-1.07772326242e-11
2.08948404279e-05
1.31428326515e-12
2.08948370808e-05
1.00658341914e-11
2.08948289528e-05
1.65580762116e-11
2.08948171644e-05
2.15392155621e-11
2.0894802428e-05
2.5598673211e-11
2.08947850174e-05
2.93021819652e-11
2.08947651428e-05
3.29708772549e-11
2.08947427966e-05
3.68721160635e-11
2.0894717805e-05
4.11918516476e-11
2.08946900178e-05
4.61124431506e-11
2.08946591687e-05
5.18528948279e-11
2.08946250136e-05
5.84231032928e-11
2.08945874314e-05
6.58357815554e-11
2.08945464533e-05
7.40322154748e-11
2.08945023883e-05
8.27563666543e-11
2.08944561056e-05
9.1463317954e-11
2.08944094197e-05
9.91830531077e-11
2.08943657011e-05
1.0415920849e-10
2.08943309766e-05
1.03197740687e-10
2.08943147937e-05
9.20180043024e-11
2.08943325436e-05
6.29911169061e-11
2.08944112985e-05
3.87754524725e-13
2.08945997143e-05
-1.22794089212e-10
2.08949662994e-05
-3.22119859869e-10
2.08956299956e-05
-6.59757107629e-10
2.0896697585e-05
-1.14023567962e-09
2.08983472348e-05
-1.85709989165e-09
2.09009367488e-05
-3.02629650821e-09
2.09050139892e-05
-4.8934519042e-09
2.09114480774e-05
-7.86496983158e-09
2.09216625609e-05
-1.26154417494e-08
2.09381473819e-05
-2.03050392664e-08
2.09650468525e-05
-3.33505404326e-08
2.10092999735e-05
-5.50253590957e-08
2.10840770129e-05
-9.29525017393e-08
2.12152991847e-05
-1.64406589855e-07
2.14558642773e-05
-3.09775259244e-07
2.19136069041e-05
-6.24390934924e-07
2.280039525e-05
-1.3416600627e-06
2.44439628738e-05
-3.11106984666e-06
-7.03684421457e-06
2.60298837214e-05
5.35171054161e-05
1.2419179718e-05
5.29349686408e-05
1.79445310024e-05
4.96538405682e-05
1.59443955572e-05
4.58401819675e-05
1.24077934996e-05
4.24400929624e-05
9.10127533313e-06
3.97291729558e-05
6.48944365217e-06
3.76873063927e-05
4.56723881827e-06
3.61976634598e-05
3.19065376466e-06
3.51326127196e-05
2.21501752449e-06
3.43823675777e-05
1.52704839913e-06
3.38606265391e-05
1.04388646809e-06
3.35023462865e-05
7.06213437592e-07
3.32596014252e-05
4.71748929432e-07
3.30975912088e-05
3.10304556698e-07
3.29913352614e-05
2.00283246099e-07
3.2923093543e-05
1.26234866417e-07
3.28804057645e-05
7.71342430492e-08
3.28546208021e-05
4.5152198479e-08
3.28397938802e-05
2.47698560907e-08
3.28318675346e-05
1.21334873917e-08
3.2827998225e-05
4.58879984589e-09
3.28269997283e-05
6.69520107833e-11
3.28271806396e-05
-1.81028456345e-09
3.28280291877e-05
-2.71290580221e-09
3.28291450885e-05
-2.93306328536e-09
3.28302924467e-05
-2.77379630784e-09
3.28313485014e-05
-2.43529521777e-09
3.28322589331e-05
-2.03629924001e-09
3.28330088955e-05
-1.64315270525e-09
3.28336044175e-05
-1.28941153505e-09
3.28340604994e-05
-9.88693602841e-10
3.28343951988e-05
-7.43942353015e-10
3.28346611928e-05
-5.53261143365e-10
3.28348770967e-05
-4.15967663523e-10
3.28350238864e-05
-2.8072931455e-10
3.283512264e-05
-1.83374454343e-10
3.28351880985e-05
-1.15529067339e-10
3.28352296792e-05
-6.87100916652e-11
3.28352542532e-05
-3.55133965177e-11
3.28352657946e-05
-1.03488815008e-11
3.28352678558e-05
7.9195059018e-12
3.28352628979e-05
2.1427679616e-11
3.28352527171e-05
3.1603555516e-11
3.28352386134e-05
3.9647169372e-11
3.28352211943e-05
4.65553823328e-11
3.28352009842e-05
5.29444897737e-11
3.28351782947e-05
5.92982017312e-11
3.28351533121e-05
6.58570411158e-11
3.28351261975e-05
7.29011478914e-11
3.28350969523e-05
8.07799669107e-11
3.28350658829e-05
8.91881981961e-11
3.28350335994e-05
9.78248847476e-11
3.28350011421e-05
1.06147492335e-10
3.28349703149e-05
1.13171529022e-10
3.2834944136e-05
1.17154318904e-10
3.28349272718e-05
1.15499912704e-10
3.28349268665e-05
1.0397256665e-10
3.28349545071e-05
7.49369444962e-11
3.28350275631e-05
1.83231110725e-11
3.28351759528e-05
-8.59685937911e-11
3.28354511295e-05
-2.75331796532e-10
3.28359425628e-05
-6.14666417966e-10
3.28366621362e-05
-1.04207153636e-09
3.28377074112e-05
-1.70537775959e-09
3.28393376986e-05
-2.77082707233e-09
3.28419274576e-05
-4.44715351674e-09
3.2845980864e-05
-7.07990256843e-09
3.28523123711e-05
-1.12250708681e-08
3.2862234815e-05
-1.77874733853e-08
3.28779121809e-05
-2.82927896876e-08
3.29030039184e-05
-4.53967416485e-08
3.2942859069e-05
-7.32056664787e-08
3.30073040827e-05
-1.19470313457e-07
3.31133146948e-05
-1.98962992817e-07
3.3289892358e-05
-3.40984088106e-07
3.35852208877e-05
-6.05103609992e-07
3.40703462713e-05
-1.1095161045e-06
3.48113533992e-05
-2.08266679909e-06
3.5671990112e-05
-3.97170583755e-06
-7.10477972335e-06
3.5739927669e-05
5.35105665535e-05
8.908613335e-06
5.55742225514e-05
1.58808752879e-05
5.52424829778e-05
1.62761353256e-05
5.35977865393e-05
1.40524900864e-05
5.15418483389e-05
1.11572136128e-05
4.95802805902e-05
8.4510114222e-06
4.79243515495e-05
6.22316782437e-06
4.66181396381e-05
4.49686560404e-06
4.56304667994e-05
3.20269027464e-06
4.49051178314e-05
2.25239728182e-06
4.43840906547e-05
1.56491358118e-06
4.40166945613e-05
1.07360950602e-06
4.37619681733e-05
7.26475341397e-07
4.35882697151e-05
4.84003085192e-07
4.34718705434e-05
3.16682537002e-07
4.33953607004e-05
2.0274488106e-07
4.33461906571e-05
1.26304446675e-07
4.3315453293e-05
7.58897323633e-08
4.32969171874e-05
4.33061536316e-08
4.32862913732e-05
2.27595028496e-08
4.32806887739e-05
1.01915978555e-08
4.32778813504e-05
2.87459726588e-09
4.32770537876e-05
-9.82497609446e-10
4.32772719164e-05
-2.93079561821e-09
4.32779596939e-05
-3.62059064817e-09
4.32788229736e-05
-3.63683159373e-09
4.32796959714e-05
-3.30806775417e-09
4.32804935627e-05
-2.83368533083e-09
4.32811794001e-05
-2.32878957001e-09
4.32817452108e-05
-1.85513282336e-09
4.32821978822e-05
-1.44141037326e-09
4.32825500713e-05
-1.09623332842e-09
4.32828114963e-05
-8.14935834689e-10
4.3282986603e-05
-5.91192395803e-10
4.32831193027e-05
-4.13726856193e-10
4.32832043498e-05
-2.68672036116e-10
4.32832581227e-05
-1.695917496e-10
4.32832977776e-05
-1.08600679081e-10
4.32833220868e-05
-5.99964372411e-11
4.32833340683e-05
-2.24510703161e-11
4.32833371672e-05
4.77198014001e-12
4.32833333e-05
2.52613534051e-11
4.32833241265e-05
4.06830352597e-11
4.32833108622e-05
5.28517207511e-11
4.32832940757e-05
6.31259941165e-11
4.32832742444e-05
7.25579907856e-11
4.32832516805e-05
8.15775619594e-11
4.32832267119e-05
9.05098208286e-11
4.32831997251e-05
9.95798354083e-11
4.32831713006e-05
1.08904477804e-10
4.32831420774e-05
1.18027623898e-10
4.32831130228e-05
1.2642893933e-10
4.32830856257e-05
1.33071159808e-10
4.32830619902e-05
1.36314323778e-10
4.32830450506e-05
1.33579598048e-10
4.32830393372e-05
1.20674277194e-10
4.3283052961e-05
8.97996338464e-11
4.32830980364e-05
2.92824749888e-11
4.3283193928e-05
-7.80569246561e-11
4.32833566017e-05
-2.49246252063e-10
4.32836019017e-05
-5.21144493329e-10
4.32840481297e-05
-1.06145957235e-09
4.32848246211e-05
-1.81896138562e-09
4.32860835532e-05
-2.96468868343e-09
4.32880331089e-05
-4.72074579983e-09
4.3291023586e-05
-7.43795089107e-09
4.32956147759e-05
-1.16713502826e-08
4.3302685347e-05
-1.8295833172e-08
4.33136172959e-05
-2.87195894531e-08
4.33305681264e-05
-4.5243746933e-08
4.33568460185e-05
-7.16747070798e-08
4.33980191734e-05
-1.14378856185e-07
4.34629347775e-05
-1.84385892127e-07
4.35653090194e-05
-3.01337140686e-07
4.37250820415e-05
-5.0075697518e-07
4.39668254346e-05
-8.46846843829e-07
4.43071655222e-05
-1.44985610815e-06
4.47073465472e-05
-2.48284786134e-06
4.49264056112e-05
-4.19076497383e-06
-6.57530819038e-06
4.43969353576e-05
5.27351380877e-05
6.17347540247e-06
5.57309347083e-05
1.28850789003e-05
5.73114746592e-05
1.46955955355e-05
5.76109922585e-05
1.37529726038e-05
5.71335231727e-05
1.1634682758e-05
5.63194687385e-05
9.26506586734e-06
5.54489886579e-05
7.09364786898e-06
5.4662978198e-05
5.28287600201e-06
5.40136827512e-05
3.85198564858e-06
5.35061515606e-05
2.75992840611e-06
5.31242558267e-05
1.94680926956e-06
5.28449865261e-05
1.35287879982e-06
5.26454405853e-05
9.26021317522e-07
5.25057167011e-05
6.23727041431e-07
5.24097223419e-05
4.12677001822e-07
5.23450167765e-05
2.67450578048e-07
5.23022794184e-05
1.69041968545e-07
5.2274692723e-05
1.03476608276e-07
5.22573686375e-05
6.06304250216e-08
5.22468603738e-05
3.32679521297e-08
5.22407610399e-05
1.62911296301e-08
5.22374524609e-05
6.1833833998e-09
5.22359540113e-05
5.16173679317e-10
5.22354462086e-05
-2.42275685265e-09
5.22355112536e-05
-3.68538173542e-09
5.22358567455e-05
-3.98208424599e-09
5.22363109595e-05
-3.76206793438e-09
5.22367772603e-05
-3.2997989278e-09
5.22372045349e-05
-2.75595571637e-09
5.22375700483e-05
-2.22059079221e-09
5.22378671006e-05
-1.73846258481e-09
5.22380985024e-05
-1.3276385163e-09
5.22382744951e-05
-9.91081881539e-10
5.22384070595e-05
-7.24065819488e-10
5.22385070963e-05
-5.14040907527e-10
5.22385914254e-05
-3.53320135258e-10
5.22386566745e-05
-2.35114758299e-10
5.22386988057e-05
-1.5094125807e-10
5.22387314199e-05
-9.2773128181e-11
5.22387467938e-05
-3.7957471849e-11
5.22387520449e-05
-5.63227857162e-13
5.22387497332e-05
2.74968693862e-11
5.22387418558e-05
4.84297026927e-11
5.22387296024e-05
6.50051063278e-11
5.22387139138e-05
7.88198121838e-11
5.22386953293e-05
9.10904059679e-11
5.22386743181e-05
1.02446864969e-10
5.22386515442e-05
1.13122223196e-10
5.22386282458e-05
1.22669445964e-10
5.22386022621e-05
1.34635543209e-10
5.22385753619e-05
1.4468107904e-10
5.22385486503e-05
1.52817500027e-10
5.22385237508e-05
1.57586879282e-10
5.22385033346e-05
1.56298490142e-10
5.22384930895e-05
1.43350242278e-10
5.22385017739e-05
1.11412101827e-10
5.22385330118e-05
5.78975991117e-11
5.22386101619e-05
-4.85839550796e-11
5.2238730735e-05
-1.9925663632e-10
5.22389270522e-05
-4.46086341556e-10
5.22392657232e-05
-8.603305177e-10
5.22397858136e-05
-1.58202116703e-09
5.2240561789e-05
-2.59536746974e-09
5.22417265727e-05
-4.12980870186e-09
5.22434835771e-05
-6.47807444824e-09
5.22461341856e-05
-1.00888719549e-08
5.22501304607e-05
-1.56679078526e-08
5.22561636918e-05
-2.43293053617e-08
5.22652928309e-05
-3.78488796489e-08
5.22791352341e-05
-5.90862331557e-08
5.23001484381e-05
-9.26879543109e-08
5.23320474776e-05
-1.4627791228e-07
5.238017446e-05
-2.32512840391e-07
5.24514528389e-05
-3.7261544383e-07
5.25527417291e-05
-6.02045764583e-07
5.26845798311e-05
-9.7868478928e-07
5.28247351083e-05
-1.5900110558e-06
5.28917214323e-05
-2.54983403881e-06
5.2673100465e-05
-3.97214412005e-06
-5.7664341761e-06
5.18642270892e-05
5.19834865493e-05
4.18998898701e-06
5.50586641865e-05
9.80990143192e-06
5.76386135078e-05
1.21156463316e-05
5.93259035193e-05
1.20656826738e-05
6.02280155917e-05
1.07325707219e-05
6.05929267926e-05
8.90015466594e-06
6.06482837059e-05
7.03829091934e-06
6.05531892372e-05
5.37797042468e-06
6.04029546561e-05
4.00222018149e-06
6.02479141596e-05
2.91496886461e-06
6.01107886701e-05
2.0839347445e-06
5.99990292282e-05
1.46463826323e-06
5.99125141715e-05
1.01253642796e-06
5.98479224327e-05
6.88318867992e-07
5.98010190542e-05
4.59580508664e-07
5.97677346094e-05
3.00735173685e-07
5.97445934707e-05
1.92183279838e-07
5.97288151385e-05
1.19255119777e-07
5.97182672122e-05
7.11785596107e-08
5.97113612318e-05
4.01741343942e-08
5.97069420852e-05
2.07104749155e-08
5.97042083843e-05
8.91728742466e-09
5.9702599538e-05
2.12522683036e-09
5.97016951861e-05
-1.51818583803e-09
5.97012370718e-05
-3.22702293015e-09
5.97010477114e-05
-3.79249684419e-09
5.97010115531e-05
-3.72572976533e-09
5.970105592e-05
-3.34404876913e-09
5.97011371072e-05
-2.8370428732e-09
5.97012294329e-05
-2.31286540409e-09
5.97013189974e-05
-1.82806540579e-09
5.97013991854e-05
-1.40800267112e-09
5.97014686179e-05
-1.06069985102e-09
5.97015278685e-05
-7.83565176553e-10
5.97015778105e-05
-5.64202898605e-10
5.97016173248e-05
-3.93073709824e-10
5.97016448726e-05
-2.62851873624e-10
5.97016599606e-05
-1.66234880529e-10
5.97016582474e-05
-9.11793545072e-11
5.97016502525e-05
-3.00453129502e-11
5.97016436899e-05
5.95256621827e-12
5.97016345025e-05
3.66162999577e-11
5.97016243068e-05
5.87495654892e-11
5.97016128142e-05
7.63425063489e-11
5.9701599114e-05
9.2402644487e-11
5.97015830023e-05
1.07055832199e-10
5.97015645828e-05
1.20691608025e-10
5.97015439235e-05
1.33551523849e-10
5.97015207011e-05
1.45656199581e-10
5.97014983976e-05
1.56734182989e-10
5.97014769228e-05
1.65906575901e-10
5.97014574953e-05
1.71936927508e-10
5.97014417636e-05
1.72938636902e-10
5.9701431204e-05
1.66384515683e-10
5.97014245633e-05
1.49399135749e-10
5.97014154247e-05
1.20126967323e-10
5.97014205734e-05
5.22079113326e-11
5.97014322029e-05
-6.09236242419e-11
5.97015181644e-05
-2.85980327341e-10
5.97017084311e-05
-6.3702193648e-10
5.97020094074e-05
-1.16184898782e-09
5.97023980343e-05
-1.97116536645e-09
5.9702978897e-05
-3.17665073369e-09
5.97038344264e-05
-4.9856515983e-09
5.9705078684e-05
-7.72259534181e-09
5.97068768185e-05
-1.18872526549e-08
5.97094670074e-05
-1.82583154914e-08
5.97131933485e-05
-2.80558519643e-08
5.9718545647e-05
-4.32013369139e-08
5.97262046236e-05
-6.67452989925e-08
5.97370715302e-05
-1.03554893381e-07
5.97522084925e-05
-1.61414863996e-07
5.97724524607e-05
-2.5275674509e-07
5.97972106886e-05
-3.97373575846e-07
5.98213253501e-05
-6.26160295415e-07
5.98279212594e-05
-9.85280561504e-07
5.97749620648e-05
-1.5370515497e-06
5.95745413683e-05
-2.34941316574e-06
5.90688736544e-05
-3.46647634504e-06
-4.79538409311e-06
5.80978240246e-05
5.14373054432e-05
2.75268364978e-06
5.42658207324e-05
6.9813862453e-06
5.72496434442e-05
9.13182369035e-06
5.97900278222e-05
9.52529834089e-06
6.17201283119e-05
8.8024702426e-06
6.30883032441e-05
7.53197972123e-06
6.40167167765e-05
6.1098773509e-06
6.46292365574e-05
4.76545061021e-06
6.50258035139e-05
3.60565320011e-06
6.52790781096e-05
2.66169425881e-06
6.54389732144e-05
1.92403966007e-06
6.55386901438e-05
1.36492139076e-06
6.55999288203e-05
9.51297840126e-07
6.56367438147e-05
6.51503997331e-07
6.56581951342e-05
4.38129346614e-07
6.56701036039e-05
2.88826876858e-07
6.56761931078e-05
1.86093957274e-07
6.56788296911e-05
1.16618722195e-07
6.56795004179e-05
7.05080263637e-08
6.56791245046e-05
4.05502501153e-08
6.56782573983e-05
2.15777839958e-08
6.56772267649e-05
9.94812166659e-09
6.56762177897e-05
3.13440103555e-09
6.567530878e-05
-6.08978854361e-10
6.56745403445e-05
-2.45838044477e-09
6.56739122385e-05
-3.16417890238e-09
6.56734135624e-05
-3.22686565292e-09
6.56730268277e-05
-2.95718288554e-09
6.56727330483e-05
-2.5432041914e-09
6.56725140789e-05
-2.09388942036e-09
6.56723537516e-05
-1.66783981767e-09
6.56722384448e-05
-1.292812789e-09
6.56721560243e-05
-9.78431764212e-10
6.5672095874e-05
-7.2360723816e-10
6.56720522428e-05
-5.20803194422e-10
6.56720209398e-05
-3.61982662989e-10
6.56719958278e-05
-2.37951159371e-10
6.56719742249e-05
-1.44808339169e-10
6.56719592902e-05
-7.63657820459e-11
6.56719576589e-05
-2.8449356568e-11
6.56719561865e-05
7.28719000762e-12
6.56719490286e-05
4.38600697396e-11
6.56719390317e-05
6.86336083104e-11
6.56719266403e-05
8.86874109416e-11
6.56719126923e-05
1.06254997448e-10
6.56718971996e-05
1.22414511365e-10
6.56718800406e-05
1.37739461983e-10
6.56718611353e-05
1.52347975879e-10
6.56718409456e-05
1.65651904626e-10
6.56718215953e-05
1.75806783616e-10
6.56718020057e-05
1.85171548903e-10
6.56717826803e-05
1.90893288579e-10
6.56717647533e-05
1.90434345427e-10
6.56717501474e-05
1.80473008236e-10
6.56717426937e-05
1.56347061302e-10
6.56717500228e-05
1.12130907972e-10
6.56717552882e-05
4.63271223599e-11
6.56717898938e-05
-9.60744170659e-11
6.56718575156e-05
-3.5427020938e-10
6.56719565555e-05
-7.36692143e-10
6.56721080224e-05
-1.3138968232e-09
6.56723189566e-05
-2.18264593926e-09
6.56726060641e-05
-3.46421567064e-09
6.56729860605e-05
-5.36598549374e-09
6.56734700102e-05
-8.2068104407e-09
6.56740557789e-05
-1.24732141374e-08
6.56747134526e-05
-1.89161623607e-08
6.56753578051e-05
-2.87003754852e-08
6.56757884085e-05
-4.36320979117e-08
6.56755783587e-05
-6.65353678498e-08
6.56738592601e-05
-1.01835849495e-07
6.56688987145e-05
-1.56454286266e-07
6.56571647846e-05
-2.41022704189e-07
6.56315325133e-05
-3.71741149736e-07
6.55778573786e-05
-5.72485020051e-07
6.54689187253e-05
-8.76341757792e-07
6.52555726056e-05
-1.3237051677e-06
6.4857815749e-05
-1.95165601144e-06
6.41632541976e-05
-2.77191459129e-06
-3.71393775147e-06
6.3081808237e-05
5.10850424228e-05
1.66764129893e-06
5.36118446632e-05
4.45458404402e-06
5.66873166074e-05
6.05635177087e-06
5.96894466295e-05
6.5231683269e-06
6.2299727235e-05
6.19218962295e-06
6.44136887961e-05
5.41801813865e-06
6.60471849403e-05
4.476381175e-06
6.72686165133e-05
3.5440190186e-06
6.81598956088e-05
2.71437410351e-06
6.87977623087e-05
2.02382758128e-06
6.92467468438e-05
1.47505518412e-06
6.95579658978e-05
1.05370243416e-06
6.97704328522e-05
7.38831011819e-07
6.991317625e-05
5.08760743145e-07
7.00073877568e-05
3.43918003384e-07
7.00682977808e-05
2.27917036142e-07
7.01067003128e-05
1.47691609311e-07
7.01301431449e-05
9.31760737159e-08
7.01438328095e-05
5.68185452454e-08
7.01513094493e-05
3.30737971386e-08
7.01549424551e-05
1.79449704991e-08
7.01562907482e-05
8.60002641295e-09
7.01563631281e-05
3.06222980161e-09
7.01557715832e-05
-1.72603587334e-11
7.0154911148e-05
-1.5977576611e-09
7.01539879764e-05
-2.24079969598e-09
7.01531197421e-05
-2.35845379401e-09
7.01523600717e-05
-2.19741277354e-09
7.01517261768e-05
-1.90927860509e-09
7.01512152414e-05
-1.58292857824e-09
7.01508142746e-05
-1.26693623608e-09
7.01505063606e-05
-9.85015403481e-10
7.01502738682e-05
-7.46116658874e-10
7.01501006461e-05
-5.50590419704e-10
7.01499737091e-05
-3.94111369434e-10
7.01498824526e-05
-2.70918573312e-10
7.01498197684e-05
-1.7540235717e-10
7.01497781868e-05
-1.03354051529e-10
7.01497497934e-05
-4.8043176963e-11
7.01497199123e-05
1.33724633337e-12
7.01496966892e-05
3.03486058818e-11
7.01496838065e-05
5.65498730058e-11
7.01496734417e-05
7.89367939866e-11
7.01496636928e-05
9.83507033382e-11
7.01496537611e-05
1.16027740858e-10
7.014964329e-05
1.32700715082e-10
7.01496321383e-05
1.48680192867e-10
7.01496203382e-05
1.63918645685e-10
7.0149607749e-05
1.7802156724e-10
7.01495929421e-05
1.90369084838e-10
7.01495778277e-05
2.00025502818e-10
7.01495632496e-05
2.05200850483e-10
7.01495499562e-05
2.03403537596e-10
7.01495385148e-05
1.91476954977e-10
7.01495284004e-05
1.65844875178e-10
7.01495167357e-05
1.23058708214e-10
7.01495101141e-05
5.23263809804e-11
7.01494981437e-05
-8.49164900482e-11
7.01495094892e-05
-3.66298123812e-10
7.01495327164e-05
-7.60533198019e-10
7.01495562096e-05
-1.33804256256e-09
7.01495587116e-05
-2.18570938377e-09
7.01495134363e-05
-3.41950304109e-09
7.0149367282e-05
-5.22026431515e-09
7.01490213754e-05
-7.86125821178e-09
7.01483007449e-05
-1.17528421204e-08
7.01469039481e-05
-1.75195576678e-08
7.01443198216e-05
-2.6116388322e-08
7.01396747809e-05
-3.898716531e-08
7.01314884933e-05
-5.83491726179e-08
7.01172726005e-05
-8.76200168956e-08
7.00928747938e-05
-1.3205646793e-07
7.00512094696e-05
-1.99357299461e-07
6.99803094324e-05
-3.00840968925e-07
6.98602200818e-05
-4.52395479975e-07
6.96585158963e-05
-6.74637340266e-07
6.93253151176e-05
-9.90504156015e-07
6.87911194983e-05
-1.41746011524e-06
6.79734190756e-05
-1.9542139621e-06
-2.55475748252e-06
6.68142391462e-05
5.08804132434e-05
7.87228090216e-07
5.31704662344e-05
2.1645310313e-06
5.62177497869e-05
3.00906819621e-06
5.94382697777e-05
3.3026483075e-06
6.24449695708e-05
3.1854897892e-06
6.50382529693e-05
2.82473471246e-06
6.71548665297e-05
2.35976759855e-06
6.88135650337e-05
1.88532051497e-06
7.00731710676e-05
1.45476809265e-06
7.10056680922e-05
1.09133060796e-06
7.16812644822e-05
7.99458879118e-07
7.21614239744e-05
5.73543059369e-07
7.24966050745e-05
4.03650060464e-07
7.27264818292e-05
2.78884156065e-07
7.28812809525e-05
1.89119064692e-07
7.29834709536e-05
1.25727230596e-07
7.3049414996e-05
8.17477709121e-08
7.30908173735e-05
5.17739019075e-08
7.31159115921e-05
3.17245286184e-08
7.31303963823e-05
1.85892033074e-08
7.31381513665e-05
1.01901766038e-08
7.31417720627e-05
4.97952094568e-09
7.31429600304e-05
1.8744567029e-09
7.31428138521e-05
1.29115504846e-10
7.31419908393e-05
-7.74600628497e-10
7.31409081282e-05
-1.15796444553e-09
7.31397934257e-05
-1.24364715721e-09
7.31387661096e-05
-1.1700417079e-09
7.31378786484e-05
-1.02179316718e-09
7.3137144962e-05
-8.49263192565e-10
7.31365576469e-05
-6.79714019331e-10
7.31360993213e-05
-5.26856799599e-10
7.31357491554e-05
-3.96126573052e-10
7.31354864968e-05
-2.88144302395e-10
7.3135293067e-05
-2.00839698112e-10
7.31351532282e-05
-1.31231297178e-10
7.31350537274e-05
-7.60551355544e-11
7.31349820755e-05
-3.18428209363e-11
7.31349289373e-05
5.06450130605e-12
7.3134899197e-05
3.11131489558e-11
7.3134876173e-05
5.3514053843e-11
7.31348594441e-05
7.33267453455e-11
7.31348471555e-05
9.12811027466e-11
7.31348375001e-05
1.08042546013e-10
7.31348291685e-05
1.24314740531e-10
7.31348213029e-05
1.40480887687e-10
7.31348132976e-05
1.56574817936e-10
7.31348047202e-05
1.72357966062e-10
7.31347953079e-05
1.87276006323e-10
7.31347850105e-05
2.00456831292e-10
7.31347738957e-05
2.10874401706e-10
7.31347620248e-05
2.16712096883e-10
7.31347495144e-05
2.15436010557e-10
7.31347366542e-05
2.03852160603e-10
7.31347240906e-05
1.77906380585e-10
7.31347131355e-05
1.33332167319e-10
7.31346961234e-05
6.86317181639e-11
7.31346729351e-05
-6.24803756342e-11
7.31346313076e-05
-3.25428867821e-10
7.31345653443e-05
-6.95192850838e-10
7.3134451363e-05
-1.22474223919e-09
7.31342461921e-05
-1.98111968448e-09
7.31338818511e-05
-3.05570876182e-09
7.31332435005e-05
-4.5824134138e-09
7.3132138272e-05
-6.75643761303e-09
7.31302445445e-05
-9.85943232531e-09
7.31270349337e-05
-1.43101849359e-08
7.312165469e-05
-2.07363104619e-08
7.31126917147e-05
-3.00242967006e-08
7.30978420206e-05
-4.34995557027e-08
7.30733988624e-05
-6.3176896899e-08
7.30334666428e-05
-9.21242315899e-08
7.29685347411e-05
-1.34425324404e-07
7.28635897563e-05
-1.95895901606e-07
7.26954719354e-05
-2.84277509578e-07
7.24296911323e-05
-4.0885633577e-07
7.20179014583e-05
-5.78714273738e-07
7.13989288878e-05
-7.98487268445e-07
7.05072547429e-05
-1.06253960303e-06
-1.34579845484e-06
6.92982960406e-05
5.07871726378e-05
5.54516793707e-11
5.2951649859e-05
5.37282199376e-11
5.59606884405e-05
2.95434302774e-11
5.92633218576e-05
1.48251138002e-11
6.24488083629e-05
3.22217359482e-12
6.52735488258e-05
-5.80041869583e-12
6.76333282813e-05
-1.18759695456e-11
6.95186637903e-05
-1.4982241519e-11
7.09734474782e-05
-1.55540444506e-11
7.20647923459e-05
-1.41829027723e-11
7.28642628379e-05
-1.14982044352e-11
7.34378142013e-05
-8.15596383043e-12
7.38414692584e-05
-4.81714239201e-12
7.41203557501e-05
-2.13721633063e-12
7.43094757093e-05
-6.83457877769e-13
7.44352040494e-05
-8.87031441853e-13
7.45169550237e-05
-2.98197019498e-12
7.45687358836e-05
-6.7366010007e-12
7.46004721413e-05
-1.15110041437e-11
7.46190778808e-05
-1.63268464198e-11
7.46292883126e-05
-2.00575735671e-11
7.46342896217e-05
-2.16054704816e-11
7.4636184768e-05
-2.05131911858e-11
7.46363321187e-05
-1.80790558138e-11
7.46355731235e-05
-1.54724834613e-11
7.46344275354e-05
-1.22674804103e-11
7.46331926136e-05
-8.63817676785e-12
7.46320272867e-05
-4.67705458006e-12
7.46310053538e-05
1.00824561995e-13
7.4630151921e-05
4.10082882046e-12
7.46294634705e-05
8.64096070384e-12
7.4628923003e-05
1.34747758713e-11
7.46285081558e-05
1.85861910049e-11
7.46281958228e-05
2.40205878239e-11
7.46279648455e-05
2.99885788417e-11
7.46277968764e-05
3.66140475365e-11
7.46276767358e-05
4.39593985134e-11
7.46275928198e-05
5.20711740674e-11
7.46275369249e-05
6.08589729038e-11
7.46274979344e-05
7.01169047055e-11
7.46274718633e-05
7.96572266729e-11
7.46274547873e-05
9.04101031659e-11
7.46274437446e-05
1.02313698923e-10
7.46274365e-05
1.15283010123e-10
7.46274315045e-05
1.29300264543e-10
7.46274276831e-05
1.44260189522e-10
7.46274242898e-05
1.59894767252e-10
7.4627420786e-05
1.75756734779e-10
7.46274167461e-05
1.91170479907e-10
7.4627411809e-05
2.05194621527e-10
7.46274057768e-05
2.1664910131e-10
7.46273984181e-05
2.23732781393e-10
7.46273894186e-05
2.2406922747e-10
7.46273780823e-05
2.14692587657e-10
7.46273631364e-05
1.92165963924e-10
7.46273429881e-05
1.52817666575e-10
7.46273169449e-05
9.39870998854e-11
7.46272710189e-05
-1.72639246769e-11
7.46271826859e-05
-2.3791941358e-10
7.46270468023e-05
-5.59922981709e-10
7.46268240109e-05
-1.00234570131e-09
7.46264534039e-05
-1.61108171965e-09
7.46258388801e-05
-2.44166799341e-09
7.46248237444e-05
-3.56773629593e-09
7.46231530926e-05
-5.08618330679e-09
7.46204105016e-05
-7.11717755675e-09
7.46159292551e-05
-9.8291957168e-09
7.46086520777e-05
-1.34593375205e-08
7.45968433892e-05
-1.82157476967e-08
7.45777035532e-05
-2.43597979053e-08
7.45468152575e-05
-3.22886288379e-08
7.44974529391e-05
-4.27619255535e-08
7.44188849717e-05
-5.58572802934e-08
7.42947208122e-05
-7.17316418579e-08
7.41005932007e-05
-9.01497832263e-08
7.38017023406e-05
-1.09965283849e-07
7.33514113192e-05
-1.28423042172e-07
7.26932812312e-05
-1.40356861295e-07
7.17693251727e-05
-1.38583271909e-07
-1.14615989164e-07
7.05381430421e-05
5.07871715887e-05
-7.87116168303e-07
5.29516489501e-05