/*--------------------------------*- C++ -*----------------------------------*\
| =========                 |                                                 |
| \\      /  F ield         | OpenFOAM: The Open Source CFD Toolbox           |
|  \\    /   O peration     | Version:  2106                                  |
|   \\  /    A nd           | Website:  www.openfoam.com                      |
|    \\/     M anipulation  |                                                 |
\*---------------------------------------------------------------------------*/
FoamFile
{
    version     2.0;
    format      ascii;
    arch        "LSB;label=32;scalar=64";
    class       volVectorField;
    location    "0.385";
    object      U;
}
// * * * * * * * * * * * * * * * * * * * * * * * * * * * * * * * * * * * * * //

dimensions      [0 1 -1 0 0 0 0];

internalField   nonuniform List<vector> 
11200
(
(0.662462405097 0.150569443063 0)
(0.558948679503 0.103243389446 0)
(0.383850749783 0.0513512257887 0)
(0.283747613089 0.0248708569907 0)
(0.232075292922 0.0124170468529 0)
(0.201908614019 0.0066228182271 0)
(0.183197963999 0.00380291552808 0)
(0.171276522621 0.00231587088469 0)
(0.163510342725 0.0014645070569 0)
(0.158388808013 0.000944892612636 0)
(0.155006671257 0.000615176814227 0)
(0.152786718424 0.000402233482834 0)
(0.151346570914 0.000264231694386 0)
(0.150428337107 0.000175249474883 0)
(0.149856736691 0.000118359902788 0)
(0.149512539733 8.21591680354e-05 0)
(0.149314983881 5.88650957108e-05 0)
(0.149209626628 4.33149550181e-05 0)
(0.14915977139 3.29339466542e-05 0)
(0.149142534516 2.81857392303e-05 0)
(0.149144691822 2.76839603601e-05 0)
(0.149156967616 2.98898273256e-05 0)
(0.149172588151 3.30502896738e-05 0)
(0.149188133612 3.59659313413e-05 0)
(0.149202339731 3.86014690927e-05 0)
(0.149214606663 4.10405642197e-05 0)
(0.149224766687 4.33178777714e-05 0)
(0.149232926426 4.54645668015e-05 0)
(0.149239322171 4.75199465937e-05 0)
(0.149244235698 4.95311840121e-05 0)
(0.149247951911 5.15601575578e-05 0)
(0.149250738023 5.36975701211e-05 0)
(0.149252790776 5.60262867245e-05 0)
(0.149254280724 5.84075240931e-05 0)
(0.149255340791 6.07681705507e-05 0)
(0.149256058047 6.30891761843e-05 0)
(0.149256529828 6.53802026074e-05 0)
(0.14925684014 6.76547349018e-05 0)
(0.149257042934 6.99241815072e-05 0)
(0.149257167061 7.21947801428e-05 0)
(0.149257233795 7.44674505749e-05 0)
(0.149257260408 7.67430051447e-05 0)
(0.149257258512 7.90212730146e-05 0)
(0.149257236652 8.13012848311e-05 0)
(0.149257200856 8.35815760393e-05 0)
(0.149257155736 8.58591318308e-05 0)
(0.149257105322 8.81311682026e-05 0)
(0.149257053206 9.03949800972e-05 0)
(0.149257003778 9.26473859717e-05 0)
(0.149256962469 9.48855439215e-05 0)
(0.149256936013 9.7106337969e-05 0)
(0.149256934082 9.93066577057e-05 0)
(0.14925697005 0.000101483314851 0)
(0.149257062007 0.000103632895055 0)
(0.149257235615 0.000105751179015 0)
(0.149257527362 0.000107832578979 0)
(0.14925798888 0.000109869829278 0)
(0.149258696341 0.000111853055948 0)
(0.14925976007 0.000113769373568 0)
(0.149261338628 0.000115593784384 0)
(0.149263680169 0.000117270747473 0)
(0.149267193622 0.000118717568867 0)
(0.14927234602 0.000119974453561 0)
(0.149279785308 0.000121235267591 0)
(0.149290544771 0.000122964921911 0)
(0.149306145943 0.000125340060238 0)
(0.149328977259 0.000128120524699 0)
(0.149362733995 0.000131080642935 0)
(0.149413008707 0.000134005650074 0)
(0.149488030647 0.000136782721188 0)
(0.149599735493 0.000140691088093 0)
(0.14977096205 0.00015155664899 0)
(0.150039472107 0.000172278610325 0)
(0.150468412335 0.000202523312486 0)
(0.151193573758 0.000232443397166 0)
(0.152492578351 0.00019164353313 0)
(0.15502152934 -0.000216754589251 0)
(0.162374620785 -0.00210992228371 0)
(0.187701861808 -0.010787724776 0)
(0.204355255568 -0.0496555940122 0)
(0.965408255789 0.289214709278 0)
(0.961962865412 0.252656043982 0)
(0.823574402423 0.159021446393 0)
(0.698139381741 0.0959957361087 0)
(0.610225477782 0.0582481186329 0)
(0.548971505554 0.0362148569958 0)
(0.506588901282 0.0231612880893 0)
(0.477567278737 0.0151375174085 0)
(0.457745498196 0.0100177563758 0)
(0.444228463659 0.00665814161606 0)
(0.435053298307 0.00441555606718 0)
(0.42887311529 0.00290686512452 0)
(0.424754197108 0.00189105730315 0)
(0.42204664603 0.00121004398688 0)
(0.420297808551 0.000757161970673 0)
(0.419193199794 0.000459254428633 0)
(0.418515595573 0.000265853481165 0)
(0.418116450026 0.000142398538315 0)
(0.417895848202 6.6108661814e-05 0)
(0.417786798942 2.30915587431e-05 0)
(0.417745385958 1.40709821188e-06 0)
(0.417742110535 -1.01630826181e-05 0)
(0.417756710715 -1.37141517985e-05 0)
(0.417778672201 -1.32673757778e-05 0)
(0.417802969764 -1.08349937024e-05 0)
(0.417826344017 -7.49182949276e-06 0)
(0.417847101451 -3.87545644921e-06 0)
(0.41786464306 -3.55996407136e-07 0)
(0.417878972401 2.86512774631e-06 0)
(0.417890404485 5.68434398211e-06 0)
(0.41789941065 8.03683934775e-06 0)
(0.41790648449 9.83861098747e-06 0)
(0.417911827628 1.10072155443e-05 0)
(0.417915674143 1.18594479621e-05 0)
(0.417918402818 1.26805522412e-05 0)
(0.417920288692 1.34371469913e-05 0)
(0.417921574807 1.41103254349e-05 0)
(0.417922453297 1.47250591652e-05 0)
(0.417923050307 1.53101842438e-05 0)
(0.417923437228 1.58793737967e-05 0)
(0.417923666888 1.64331877725e-05 0)
(0.417923782861 1.69763519612e-05 0)
(0.41792381544 1.75123634213e-05 0)
(0.417923786938 1.80443344257e-05 0)
(0.417923712549 1.85762665804e-05 0)
(0.417923604089 1.9109765013e-05 0)
(0.417923472805 1.96466169873e-05 0)
(0.417923328714 2.0188903536e-05 0)
(0.417923183627 2.07388246907e-05 0)
(0.417923051621 2.12987140533e-05 0)
(0.41792295034 2.18685494747e-05 0)
(0.417922904679 2.24484524776e-05 0)
(0.417922948825 2.30382571277e-05 0)
(0.417923129342 2.36374141831e-05 0)
(0.41792351148 2.42452564739e-05 0)
(0.417924187925 2.48611226299e-05 0)
(0.417925290851 2.54817644423e-05 0)
(0.417927015166 2.60954671052e-05 0)
(0.417929639695 2.66855599331e-05 0)
(0.417933555103 2.72207874188e-05 0)
(0.417939367225 2.76507172171e-05 0)
(0.417948174897 2.79291347623e-05 0)
(0.417961463598 2.82153019792e-05 0)
(0.417981374847 2.77536641961e-05 0)
(0.418010669566 2.51329912598e-05 0)
(0.418052954915 1.92947839989e-05 0)
(0.41811442792 9.43134875112e-06 0)
(0.418205207622 -5.99172015494e-06 0)
(0.418340893952 -2.9498243e-05 0)
(0.418546378936 -6.47679702522e-05 0)
(0.418863553212 -0.000115989824728 0)
(0.419362002406 -0.000188131115927 0)
(0.420155178181 -0.00030790239217 0)
(0.421446712785 -0.000532858744632 0)
(0.423628199014 -0.000999803644272 0)
(0.427418228474 -0.00209039125242 0)
(0.434238757778 -0.00485606181883 0)
(0.448264360051 -0.0122530693275 0)
(0.474641400116 -0.0342392339877 0)
(0.478159442341 -0.0987626446541 0)
(1.02222096702 0.238416192187 0)
(1.08213753657 0.295926659512 0)
(1.03447723921 0.239503073802 0)
(0.954615425884 0.174290171556 0)
(0.879992075005 0.121345474653 0)
(0.818614456585 0.0830993892102 0)
(0.771410872241 0.0567316708632 0)
(0.736634412402 0.0387409708858 0)
(0.71162445421 0.0264327880354 0)
(0.693916642504 0.017973104559 0)
(0.681541433343 0.0121424468828 0)
(0.673000142085 0.00812490647924 0)
(0.667180678859 0.00536631897275 0)
(0.663271711335 0.00348444264074 0)
(0.66068854298 0.00221255957475 0)
(0.659014221805 0.001363380221 0)
(0.657954544158 0.000805242794591 0)
(0.657304254431 0.000445916189406 0)
(0.656921838951 0.00022106851962 0)
(0.656710276259 8.55814425137e-05 0)
(0.656603414545 8.3584823276e-06 0)
(0.656561867853 -3.37185509861e-05 0)
(0.656557969205 -5.68523872829e-05 0)
(0.656571446428 -6.68709278194e-05 0)
(0.656592977577 -6.84779532638e-05 0)
(0.656616798935 -6.55562493412e-05 0)
(0.656639602991 -6.05452236811e-05 0)
(0.65665978263 -5.48556502148e-05 0)
(0.656676752516 -4.92720168832e-05 0)
(0.656690489922 -4.42010524545e-05 0)
(0.656701241368 -3.98378399636e-05 0)
(0.656709391045 -3.63003653682e-05 0)
(0.656715634521 -3.36949647059e-05 0)
(0.656720662171 -3.18574254122e-05 0)
(0.656724518551 -3.08115959849e-05 0)
(0.656727218696 -3.03056076447e-05 0)
(0.656729074972 -3.02511546428e-05 0)
(0.656730368013 -3.05627311001e-05 0)
(0.656731265061 -3.10905428796e-05 0)
(0.656731856057 -3.1752485297e-05 0)
(0.656732215374 -3.25188975575e-05 0)
(0.656732407926 -3.33547208976e-05 0)
(0.656732478293 -3.42356389378e-05 0)
(0.656732460879 -3.51429369905e-05 0)
(0.656732379633 -3.60608963723e-05 0)
(0.656732252129 -3.69784535939e-05 0)
(0.656732095116 -3.78879515441e-05 0)
(0.656731924528 -3.87843515873e-05 0)
(0.656731758032 -3.9662774427e-05 0)
(0.656731614164 -4.05173190673e-05 0)
(0.656731517185 -4.13448033053e-05 0)
(0.656731502929 -4.21411957616e-05 0)
(0.656731620519 -4.29050186588e-05 0)
(0.656731938425 -4.36399201834e-05 0)
(0.656732553993 -4.43598182379e-05 0)
(0.656733603718 -4.50953971886e-05 0)
(0.656735276854 -4.59034949965e-05 0)
(0.656737853694 -4.68786209067e-05 0)
(0.656741744122 -4.81453668508e-05 0)
(0.656747545209 -4.99244889067e-05 0)
(0.65675619597 -5.27309063386e-05 0)
(0.656769346417 -5.75543970476e-05 0)
(0.656788300657 -6.52099544968e-05 0)
(0.65681450419 -7.65537203305e-05 0)
(0.656851818842 -9.32870332842e-05 0)
(0.656906955145 -0.000117800804982 0)
(0.656989285433 -0.000153298413711 0)
(0.657112602632 -0.00020506817639 0)
(0.657298723729 -0.000281629560149 0)
(0.657583041648 -0.000396855779603 0)
(0.658023681708 -0.000575093246978 0)
(0.658709828514 -0.000863601662262 0)
(0.659788520038 -0.00135244120788 0)
(0.661517264451 -0.00221470478214 0)
(0.664338161611 -0.00381288369983 0)
(0.668946852321 -0.00694567175873 0)
(0.676369023983 -0.0133514948589 0)
(0.688612189579 -0.0268409681193 0)
(0.705234844673 -0.0563138292541 0)
(0.700483982246 -0.113071316152 0)
(1.02251475621 0.170807159597 0)
(1.10138976411 0.276496487353 0)
(1.11752427391 0.266664808386 0)
(1.09214662239 0.219901707573 0)
(1.05187817571 0.168168854995 0)
(1.01020824552 0.123567402435 0)
(0.973494712032 0.088837525522 0)
(0.943864576402 0.0630063737284 0)
(0.921142818705 0.0442232046358 0)
(0.904284090626 0.0307423919038 0)
(0.892074886024 0.0211562922256 0)
(0.883404528087 0.014395465933 0)
(0.877352689357 0.00966794531114 0)
(0.873197728735 0.00639383434509 0)
(0.870392955037 0.00415116226988 0)
(0.868534069931 0.00263448883076 0)
(0.867327676856 0.0016240158482 0)
(0.866564277421 0.000962675072205 0)
(0.866096523694 0.000539122142117 0)
(0.865822284954 0.000275154013613 0)
(0.865671444471 0.000117069506018 0)
(0.865595197118 2.87942854252e-05 0)
(0.865564142228 -1.93221406524e-05 0)
(0.865561337226 -4.12577819462e-05 0)
(0.865572684363 -4.76612956337e-05 0)
(0.865589694021 -4.55201876727e-05 0)
(0.865608006921 -3.91504038284e-05 0)
(0.865625348902 -3.11395660382e-05 0)
(0.8656406361 -2.29587248547e-05 0)
(0.865653500946 -1.53757037833e-05 0)
(0.865663974923 -8.71880880684e-06 0)
(0.865672261677 -3.04121536043e-06 0)
(0.865678612634 1.73606965535e-06 0)
(0.865683236826 5.46577964873e-06 0)
(0.865686552427 8.03154269666e-06 0)
(0.865688946061 9.7870481662e-06 0)
(0.86569057403 1.1140057148e-05 0)
(0.865691733362 1.22841955623e-05 0)
(0.865692599268 1.3252683504e-05 0)
(0.865693190207 1.4138682312e-05 0)
(0.865693554725 1.4933461591e-05 0)
(0.865693757198 1.56594477078e-05 0)
(0.865693835676 1.63322966389e-05 0)
(0.86569382156 1.69691536208e-05 0)
(0.865693736796 1.75830341259e-05 0)
(0.865693597261 1.81852757074e-05 0)
(0.865693418066 1.87833260564e-05 0)
(0.865693215581 1.93829666138e-05 0)
(0.865693011561 1.99917339752e-05 0)
(0.865692829218 2.06201760755e-05 0)
(0.865692698414 2.12532000335e-05 0)
(0.865692660958 2.18778274469e-05 0)
(0.865692770398 2.24768597525e-05 0)
(0.865693096957 2.30241350095e-05 0)
(0.865693735367 2.3483966714e-05 0)
(0.865694816804 2.38227163642e-05 0)
(0.865696526887 2.39961235291e-05 0)
(0.865699160176 2.38863396733e-05 0)
(0.865703121789 2.3348057702e-05 0)
(0.865708826035 2.19671146285e-05 0)
(0.86571675623 1.91795755432e-05 0)
(0.865728527144 1.42687348287e-05 0)
(0.865746723306 5.41186853877e-06 0)
(0.865774320309 -8.97098278417e-06 0)
(0.865815183593 -3.08796760801e-05 0)
(0.865875238718 -6.42794299828e-05 0)
(0.865963826745 -0.000116043872666 0)
(0.866095461799 -0.000196931675172 0)
(0.866292692144 -0.000324198847258 0)
(0.866590332746 -0.000526312917436 0)
(0.867041978619 -0.000852208869151 0)
(0.867732677224 -0.00138880343028 0)
(0.868798746858 -0.00228483137612 0)
(0.870453385659 -0.00381482268251 0)
(0.873015380404 -0.00650292208193 0)
(0.876883461402 -0.0113583559092 0)
(0.882379875773 -0.0202498699713 0)
(0.889687459711 -0.0364475551506 0)
(0.896360757284 -0.0654822951126 0)
(0.886529362787 -0.110025316729 0)
(1.01287875237 0.118961032243 0)
(1.08820671344 0.231806947353 0)
(1.1374136815 0.253106775356 0)
(1.15409088082 0.228992763582 0)
(1.14994212445 0.18836836748 0)
(1.1353846714 0.146579850767 0)
(1.11758896511 0.110150970375 0)
(1.10059501903 0.0808162246363 0)
(1.08612458807 0.0582265769591 0)
(1.07459094145 0.0413189838993 0)
(1.06579148425 0.0289160178645 0)
(1.05928800784 0.0199600968013 0)
(1.05459978487 0.0135815565799 0)
(1.0512907897 0.00909743967031 0)
(1.04899987555 0.00598615082677 0)
(1.04744343654 0.00385696397437 0)
(1.04640656751 0.00242159622402 0)
(1.04573065664 0.00147014932934 0)
(1.04530110554 0.000851702092022 0)
(1.04503661238 0.000459017530826 0)
(1.04488025349 0.000216759081474 0)
(1.04479264077 7.302101823e-05 0)
(1.04474877916 -5.49986218616e-06 0)
(1.04473188346 -4.40032255137e-05 0)
(1.04472963663 -5.93796035001e-05 0)
(1.04473512448 -6.1712641166e-05 0)
(1.04474407592 -5.72386437428e-05 0)
(1.04475396288 -4.97966621234e-05 0)
(1.04476340548 -4.16379807774e-05 0)
(1.04477173345 -3.39835829687e-05 0)
(1.04477869604 -2.7419338075e-05 0)
(1.0447842809 -2.21490346527e-05 0)
(1.04478863373 -1.81277264232e-05 0)
(1.04479196574 -1.51403682676e-05 0)
(1.04479453264 -1.2811067318e-05 0)
(1.04479662828 -1.10161851479e-05 0)
(1.04479836388 -9.52800626198e-06 0)
(1.04479968554 -8.23914692548e-06 0)
(1.04480066381 -7.22139058034e-06 0)
(1.04480134948 -6.55327850865e-06 0)
(1.04480176457 -6.17352736525e-06 0)
(1.04480199556 -5.96509711142e-06 0)
(1.04480208826 -5.87787784765e-06 0)
(1.04480208012 -5.86010969523e-06 0)
(1.0448019954 -5.87393904326e-06 0)
(1.0448018521 -5.89842559328e-06 0)
(1.04480166729 -5.9241709144e-06 0)
(1.04480146184 -5.94635071631e-06 0)
(1.04480126298 -5.96782219989e-06 0)
(1.04480107751 -6.00291008813e-06 0)
(1.04480091996 -6.03454805973e-06 0)
(1.04480083572 -6.06035058938e-06 0)
(1.04480087951 -6.08687309061e-06 0)
(1.04480112787 -6.12977591466e-06 0)
(1.04480170501 -6.22936270623e-06 0)
(1.04480278744 -6.50380886141e-06 0)
(1.04480456321 -7.21096839258e-06 0)
(1.04480733067 -8.62814497595e-06 0)
(1.04481140121 -1.12494449814e-05 0)
(1.04481724742 -1.50873938095e-05 0)
(1.04482588085 -2.00237621089e-05 0)
(1.04483845431 -2.62675917791e-05 0)
(1.04485626739 -3.60903289524e-05 0)
(1.044881621 -5.24778131635e-05 0)
(1.04491798491 -7.96433670717e-05 0)
(1.04497051362 -0.000123830999348 0)
(1.0450468117 -0.000194808858713 0)
(1.04515822821 -0.00030815385369 0)
(1.04532190944 -0.000489027028882 0)
(1.04556371642 -0.000778442873656 0)
(1.04592232178 -0.00124370494339 0)
(1.04645556717 -0.00199642986111 0)
(1.04724754464 -0.00322711384307 0)
(1.04841116017 -0.00526646125107 0)
(1.05007366153 -0.00869118366496 0)
(1.05229162344 -0.0144947932909 0)
(1.05482096271 -0.0242839352923 0)
(1.05687204659 -0.0403679275753 0)
(1.05573923697 -0.0655852387388 0)
(1.04212579747 -0.0994379347473 0)
(1.0044748358 0.081404007724 0)
(1.06917237779 0.181288550606 0)
(1.13080569528 0.216950430437 0)
(1.17375001519 0.210789166133 0)
(1.19865266559 0.183690085606 0)
(1.21019989571 0.149751689792 0)
(1.21350257459 0.116779148118 0)
(1.21251725861 0.088220679446 0)
(1.20973100205 0.0650481502526 0)
(1.20651121635 0.0470209063448 0)
(1.20351915478 0.0334068045428 0)
(1.2010114759 0.0233557276398 0)
(1.19903447828 0.0160720085444 0)
(1.19753881014 0.0108795084548 0)
(1.19644134943 0.00723418321763 0)
(1.19565562491 0.0047135144274 0)
(1.19510493353 0.00299762609687 0)
(1.19472652497 0.00184915907882 0)
(1.19447154837 0.00109495991929 0)
(1.19430324231 0.000610612157735 0)
(1.19419460692 0.000307988736915 0)
(1.19412632584 0.000125772072171 0)
(1.19408527933 2.22280628755e-05 0)
(1.19406202353 -3.2445816502e-05 0)
(1.19404972615 -5.72634304476e-05 0)
(1.19404423017 -6.45885170784e-05 0)
(1.19404273446 -6.23662987514e-05 0)
(1.19404342029 -5.55116596322e-05 0)
(1.19404517191 -4.6935238484e-05 0)
(1.19404733128 -3.82504690294e-05 0)
(1.19404952557 -3.02580242082e-05 0)
(1.19405156245 -2.3263175859e-05 0)
(1.19405337341 -1.72894200977e-05 0)
(1.19405495276 -1.22626315049e-05 0)
(1.19405631722 -8.07640328144e-06 0)
(1.19405748646 -4.67675813605e-06 0)
(1.19405843309 -2.06736988436e-06 0)
(1.1940591039 -1.78980267154e-07 0)
(1.19405945929 1.13717384154e-06 0)
(1.19405957574 1.99235786294e-06 0)
(1.19405963313 2.67043450966e-06 0)
(1.19405966684 3.27210170542e-06 0)
(1.19405965283 3.79876567449e-06 0)
(1.19405960649 4.25702873294e-06 0)
(1.19405952198 4.66024753009e-06 0)
(1.19405939148 5.02493019974e-06 0)
(1.19405921771 5.36327417575e-06 0)
(1.19405900847 5.67910193501e-06 0)
(1.19405877229 5.96429548415e-06 0)
(1.19405855101 6.20096981937e-06 0)
(1.19405839282 6.41296687843e-06 0)
(1.19405832708 6.59354812508e-06 0)
(1.19405840188 6.71625534123e-06 0)
(1.1940586736 6.73991150036e-06 0)
(1.19405917435 6.60345018194e-06 0)
(1.19405988694 6.21230141765e-06 0)
(1.19406090526 5.4213417427e-06 0)
(1.19406238326 3.83106456539e-06 0)
(1.19406501252 1.05467812799e-06 0)
(1.19406981805 -3.21557059119e-06 0)
(1.19407730279 -9.76032490054e-06 0)
(1.19408741168 -1.99520342908e-05 0)
(1.19410092814 -3.5813256274e-05 0)
(1.19411984387 -6.02645581638e-05 0)
(1.19414628619 -9.78879976929e-05 0)
(1.19418308024 -0.000156001217683 0)
(1.19423422041 -0.00024625013494 0)
(1.19430534387 -0.000387113614066 0)
(1.19440433993 -0.000608047461288 0)
(1.19454199058 -0.000956379520719 0)
(1.19473234301 -0.00150861189504 0)
(1.19499217211 -0.00238900817947 0)
(1.19533629439 -0.00380076311159 0)
(1.19576196598 -0.0060767504363 0)
(1.19620885104 -0.00975571562148 0)
(1.19645721825 -0.0156813088024 0)
(1.19592027417 -0.0250641674133 0)
(1.19344357199 -0.039359553069 0)
(1.18669223538 -0.0598099311611 0)
(1.17014832241 -0.0851046388298 0)
(0.998962326647 0.0544316365547 0)
(1.05310957214 0.133401620161 0)
(1.11628268892 0.170777570587 0)
(1.17301272854 0.17514388303 0)
(1.21791247349 0.159583615196 0)
(1.25049859166 0.134951026443 0)
(1.27288492549 0.108411660569 0)
(1.28776723652 0.0838849730693 0)
(1.29745269647 0.0630565713627 0)
(1.30366076854 0.0462999185343 0)
(1.30759236386 0.0333205105662 0)
(1.31005372477 0.0235495188801 0)
(1.31157365257 0.0163599022105 0)
(1.31249495982 0.0111713096077 0)
(1.31303865799 0.0074915015174 0)
(1.31334675524 0.00492448128298 0)
(1.31351017504 0.00316295139518 0)
(1.3135868109 0.00197474892438 0)
(1.31361319322 0.00118819498518 0)
(1.31361204973 0.000678628439896 0)
(1.31359721808 0.000357008814364 0)
(1.31357690282 0.000160755856934 0)
(1.31355591426 4.64725035172e-05 0)
(1.31353662456 -1.58646353222e-05 0)
(1.31351997234 -4.60516660315e-05 0)
(1.3135062893 -5.70608887093e-05 0)
(1.31349539031 -5.73152323356e-05 0)
(1.31348693778 -5.20767401744e-05 0)
(1.31348054337 -4.45148599713e-05 0)
(1.31347582207 -3.6454274876e-05 0)
(1.3134724225 -2.88676598686e-05 0)
(1.31347004151 -2.2208614171e-05 0)
(1.31346842004 -1.66281957231e-05 0)
(1.31346732983 -1.21339631471e-05 0)
(1.31346660565 -8.65971171986e-06 0)
(1.3134661507 -6.10425559286e-06 0)
(1.31346586419 -4.32996383501e-06 0)
(1.3134656565 -3.12940405584e-06 0)
(1.3134655256 -2.27291608613e-06 0)
(1.31346555808 -1.55591569541e-06 0)
(1.31346571473 -9.80877918075e-07 0)
(1.31346581854 -5.68103238391e-07 0)
(1.3134658174 -2.09010437794e-07 0)
(1.31346574265 1.2403663283e-07 0)
(1.31346561672 4.31241246428e-07 0)
(1.31346545145 7.20317319203e-07 0)
(1.31346525044 1.00329874729e-06 0)
(1.31346501666 1.29012027224e-06 0)
(1.31346475959 1.5903366075e-06 0)
(1.31346451303 1.90857892895e-06 0)
(1.31346430081 2.19420337882e-06 0)
(1.31346413055 2.40782477356e-06 0)
(1.3134640328 2.50465592842e-06 0)
(1.31346406096 2.42092040304e-06 0)
(1.31346430364 2.07174826377e-06 0)
(1.31346488044 1.37177569962e-06 0)
(1.31346574986 2.63386794246e-07 0)
(1.31346703148 -1.4237089123e-06 0)
(1.31346914831 -3.94438107351e-06 0)
(1.31347229385 -8.02552600984e-06 0)
(1.31347668869 -1.49465886538e-05 0)
(1.31348256544 -2.62730976657e-05 0)
(1.31349020539 -4.36020019087e-05 0)
(1.3135000975 -7.0112308239e-05 0)
(1.31351256273 -0.000110833888513 0)
(1.31352768881 -0.000173513910557 0)
(1.31354510064 -0.000270234519134 0)
(1.31356349491 -0.000419950328002 0)
(1.31357969293 -0.000652473336866 0)
(1.31358680319 -0.00101501501839 0)
(1.31357078621 -0.00158256100752 0)
(1.31350423068 -0.00247412856062 0)
(1.31333295254 -0.00387691308934 0)
(1.31294944232 -0.00608318273014 0)
(1.31214379724 -0.00953727010769 0)
(1.31051082228 -0.01488046586 0)
(1.30729744336 -0.0229406575829 0)
(1.30129451161 -0.0345576893038 0)
(1.29063507206 -0.0501682873571 0)
(1.2718484704 -0.0685451870344 0)
(0.99573607508 0.0346338716992 0)
(1.0417951476 0.0905689340248 0)
(1.10222839459 0.121549577593 0)
(1.16491412701 0.129605845233 0)
(1.22202567667 0.122009277321 0)
(1.26951893621 0.10601994462 0)
(1.30680225613 0.0870975595351 0)
(1.33499537445 0.0686366821258 0)
(1.35574479855 0.0523698378476 0)
(1.3706961951 0.0389256148601 0)
(1.38128278681 0.0282980688054 0)
(1.38866271308 0.0201712715643 0)
(1.39373037424 0.0141175042266 0)
(1.39715665349 0.00970532972887 0)
(1.39943440051 0.00655058925958 0)
(1.40091972812 0.00433444918353 0)
(1.40186628032 0.00280414023095 0)
(1.40245230678 0.00176573943883 0)
(1.40280141039 0.00107419268638 0)
(1.40299811322 0.000623233961544 0)
(1.40309934044 0.000336409641768 0)
(1.4031427997 0.000159625153144 0)
(1.40315306609 5.51679049962e-05 0)
(1.40314558315 -2.9925316075e-06 0)
(1.40312982956 -3.21156393549e-05 0)
(1.40311143309 -4.38821427034e-05 0)
(1.40309340102 -4.57519388966e-05 0)
(1.40307725713 -4.24101367514e-05 0)
(1.40306360288 -3.67202458629e-05 0)
(1.40305251235 -3.03588761441e-05 0)
(1.40304378345 -2.42407380576e-05 0)
(1.4030370907 -1.88125817785e-05 0)
(1.40303207313 -1.42430575711e-05 0)
(1.40302838095 -1.05339486136e-05 0)
(1.40302571648 -7.58464019223e-06 0)
(1.40302384809 -5.26983120665e-06 0)
(1.4030225995 -3.46685653162e-06 0)
(1.40302182004 -2.03195498478e-06 0)
(1.40302134537 -8.60208798633e-07 0)
(1.4030209799 7.13572051801e-08 0)
(1.40302065528 7.79379495283e-07 0)
(1.40302045369 1.26864617682e-06 0)
(1.40302036172 1.63876973109e-06 0)
(1.40302028774 1.95701064354e-06 0)
(1.40302019679 2.25999340364e-06 0)
(1.40302008166 2.56542130261e-06 0)
(1.40301994105 2.88260297006e-06 0)
(1.40301977715 3.2159551021e-06 0)
(1.40301959188 3.5659097129e-06 0)
(1.40301937824 3.92372807847e-06 0)
(1.40301914734 4.24753562907e-06 0)
(1.403018933 4.50499133612e-06 0)
(1.40301876367 4.65731377446e-06 0)
(1.40301866413 4.64614971037e-06 0)
(1.40301865063 4.38285801328e-06 0)
(1.40301872793 3.72510334865e-06 0)
(1.40301891631 2.46910021384e-06 0)
(1.40301920217 4.92917527065e-07 0)
(1.40301982317 -2.62864309724e-06 0)
(1.40302097347 -7.65438350785e-06 0)
(1.40302248932 -1.53841742923e-05 0)
(1.4030240448 -2.71423200769e-05 0)
(1.4030251721 -4.47835380541e-05 0)
(1.40302513111 -7.12946641196e-05 0)
(1.40302243482 -0.000111266472175 0)
(1.40301434818 -0.00017172926221 0)
(1.4029960704 -0.000263556923212 0)
(1.40295942353 -0.000403621483579 0)
(1.40289048053 -0.000617980427869 0)
(1.40276554112 -0.00094723848491 0)
(1.40254458866 -0.00145471216366 0)
(1.4021612989 -0.00223881160878 0)
(1.40150416987 -0.00344855926668 0)
(1.40038492378 -0.00530763045498 0)
(1.39849036893 -0.00813875716832 0)
(1.39530749947 -0.0123766230275 0)
(1.39002346616 -0.0185320167205 0)
(1.38149048726 -0.027042444652 0)
(1.3682130956 -0.0379894073022 0)
(1.34780013509 -0.0504804088019 0)
(0.99401153215 0.0192358181502 0)
(1.0348476389 0.0523338529687 0)
(1.09199263245 0.0723631397206 0)
(1.15662420745 0.0791292427111 0)
(1.22032117318 0.0761045546838 0)
(1.27701946493 0.0673339771846 0)
(1.32424420398 0.056150906507 0)
(1.36181575404 0.0447990115245 0)
(1.39068532943 0.034530375971 0)
(1.41226077527 0.025881429049 0)
(1.4280182508 0.0189465192161 0)
(1.43929887417 0.0135849763576 0)
(1.44722811212 0.00955652796053 0)
(1.45270417303 0.00660010887119 0)
(1.45641900371 0.00447418390432 0)
(1.45889149562 0.0029735076302 0)
(1.46050236702 0.00193276367658 0)
(1.46152577071 0.00122368988464 0)
(1.46215579341 0.000749547994257 0)
(1.46252762503 0.000439016753786 0)
(1.46273390883 0.000240521856262 0)
(1.46283705808 0.000117414473369 0)
(1.46287836702 4.40538359784e-05 0)
(1.46288461188 2.69719692568e-06 0)
(1.46287249272 -1.8436827834e-05 0)
(1.46285214649 -2.74296973933e-05 0)
(1.46282959986 -2.94292400604e-05 0)
(1.46280806524 -2.76796240957e-05 0)
(1.46278907044 -2.41784830448e-05 0)
(1.46277316013 -2.01071124058e-05 0)
(1.46276032512 -1.61142715186e-05 0)
(1.46275027115 -1.25223200895e-05 0)
(1.46274258793 -9.45790248576e-06 0)
(1.46273684329 -6.93151327781e-06 0)
(1.46273263892 -4.88950616379e-06 0)
(1.46272963318 -3.26206483629e-06 0)
(1.46272753759 -1.98621027015e-06 0)
(1.46272609546 -1.02114621336e-06 0)
(1.46272509545 -3.21122683961e-07 0)
(1.46272447239 1.99314216066e-07 0)
(1.46272411336 6.79777181094e-07 0)
(1.46272386868 1.15465876802e-06 0)
(1.46272370528 1.57808720327e-06 0)
(1.46272358395 1.95676176941e-06 0)
(1.46272347473 2.31151389603e-06 0)
(1.46272335835 2.65589361774e-06 0)
(1.4627232217 2.99508395033e-06 0)
(1.46272305641 3.32710915533e-06 0)
(1.46272285819 3.6423656763e-06 0)
(1.4627226246 3.92771033419e-06 0)
(1.46272235876 4.17492261494e-06 0)
(1.4627220686 4.3523672399e-06 0)
(1.4627217613 4.40847677838e-06 0)
(1.46272144733 4.2731149056e-06 0)
(1.46272114355 3.85532662885e-06 0)
(1.46272087347 3.0454178368e-06 0)
(1.4627205976 1.72491387563e-06 0)
(1.46272023166 -2.37593761959e-07 0)
(1.46271965373 -3.07090026642e-06 0)
(1.46271872056 -7.65604691518e-06 0)
(1.46271715972 -1.47744238196e-05 0)
(1.46271429406 -2.55188994156e-05 0)
(1.46270900798 -4.14381157426e-05 0)
(1.46269949551 -6.4914910009e-05 0)
(1.46268269665 -9.95521853893e-05 0)
(1.46265347518 -0.000150742969774 0)
(1.46260332553 -0.000226670738629 0)
(1.46251849291 -0.000339807062388 0)
(1.46237652193 -0.000508762735307 0)
(1.46214058422 -0.000761953722398 0)
(1.46175072741 -0.00114312176208 0)
(1.46111237038 -0.00171992338854 0)
(1.46007444284 -0.0025880955241 0)
(1.45839602189 -0.00388715389448 0)
(1.45570325938 -0.00580945281664 0)
(1.45143088194 -0.00859806259371 0)
(1.4447587093 -0.0125130574295 0)
(1.43461797896 -0.0177347680991 0)
(1.41974970088 -0.0242113036889 0)
(1.39830871936 -0.0313965123866 0)
(0.993269667984 0.00617016194095 0)
(1.03158100223 0.0171020581814 0)
(1.08672182212 0.0239906604851 0)
(1.15174555006 0.0265606761979 0)
(1.21823537013 0.0258180670649 0)
(1.27925775071 0.0230488917597 0)
(1.33140137135 0.0193656344558 0)
(1.37377600204 0.0155468584812 0)
(1.40691055232 0.0120449285692 0)
(1.43203315674 0.00906639629407 0)
(1.45060217581 0.00666058995451 0)
(1.46402988926 0.00479008576967 0)
(1.47355019688 0.00337842217695 0)
(1.48017567579 0.00233873200071 0)
(1.48470233601 0.00158890819662 0)
(1.48773625966 0.0010582838818 0)
(1.48972740501 0.000689458655377 0)
(1.4910028429 0.000437635441403 0)
(1.49179593098 0.000268884137495 0)
(1.49227030964 0.000158111051221 0)
(1.49253880958 8.71263114118e-05 0)
(1.49267789388 4.29784240338e-05 0)
(1.49273843489 1.65903508125e-05 0)
(1.49275361577 1.67130869612e-06 0)
(1.49274438513 -6.06000274192e-06 0)
(1.49272360269 -9.40422754977e-06 0)
(1.49269896347 -1.02098739852e-05 0)
(1.49267469517 -9.64683060185e-06 0)
(1.49265289498 -8.43362469936e-06 0)
(1.49263440466 -6.98820801164e-06 0)
(1.49261934702 -5.55108171715e-06 0)
(1.49260745967 -4.24184522041e-06 0)
(1.49259831339 -3.1075966651e-06 0)
(1.49259143281 -2.15460190171e-06 0)
(1.4925863642 -1.36636682144e-06 0)
(1.49258270793 -7.21223965404e-07 0)
(1.49258012804 -1.97806835884e-07 0)
(1.49257835533 2.26379751795e-07 0)
(1.4925771831 5.97392592805e-07 0)
(1.49257643412 9.65770372008e-07 0)
(1.49257595557 1.27052462531e-06 0)
(1.49257565397 1.55456071613e-06 0)
(1.49257547146 1.8352379283e-06 0)
(1.49257535562 2.12258414651e-06 0)
(1.49257526712 2.4235776567e-06 0)
(1.49257517943 2.74133194324e-06 0)
(1.49257507407 3.07504721046e-06 0)
(1.49257493787 3.42044314313e-06 0)
(1.49257476093 3.76886629838e-06 0)
(1.49257453474 4.10586556658e-06 0)
(1.49257425345 4.41148645898e-06 0)
(1.49257391292 4.65305091759e-06 0)
(1.49257350725 4.78475691482e-06 0)
(1.49257302511 4.74499315914e-06 0)
(1.49257244436 4.44899467897e-06 0)
(1.49257173897 3.77733936387e-06 0)
(1.49257089571 2.57614530363e-06 0)
(1.49256977577 7.69369026477e-07 0)
(1.4925679657 -1.89015346685e-06 0)
(1.49256517203 -6.03114373395e-06 0)
(1.49256099962 -1.21877409468e-05 0)
(1.49255442098 -2.11313572585e-05 0)
(1.49254382537 -3.39516308776e-05 0)
(1.4925266726 -5.22029166299e-05 0)
(1.4924988502 -7.80866309877e-05 0)
(1.4924536604 -0.000114633730076 0)
(1.49238023084 -0.000166220959149 0)
(1.49226149573 -0.000239344731137 0)
(1.49207009673 -0.000342507060892 0)
(1.49176143613 -0.000488251916891 0)
(1.49126323144 -0.000696762590707 0)
(1.49046675181 -0.00100176713744 0)
(1.48920263151 -0.00143570976818 0)
(1.48720505126 -0.00204609569609 0)
(1.48407561915 -0.00289427708242 0)
(1.47923459807 -0.00404773397587 0)
(1.47187527668 -0.00556073117698 0)
(1.46098432395 -0.00743476253592 0)
(1.44541479502 -0.0095757870696 0)
(1.42355759624 -0.0117353166764 0)
(0.993270465641 -0.00616839091102 0)
(1.03158098413 -0.0171003646342 0)
(1.08672175442 -0.023989750767 0)
(1.15174558596 -0.026560237508 0)
(1.2182354459 -0.0258179858919 0)
(1.27925785044 -0.0230491054436 0)