/*--------------------------------*- C++ -*----------------------------------*\
| =========                 |                                                 |
| \\      /  F ield         | OpenFOAM: The Open Source CFD Toolbox           |
|  \\    /   O peration     | Version:  2106                                  |
|   \\  /    A nd           | Website:  www.openfoam.com                      |
|    \\/     M anipulation  |                                                 |
\*---------------------------------------------------------------------------*/
FoamFile
{
    version     2.0;
    format      ascii;
    arch        "LSB;label=32;scalar=64";
    class       volScalarField;
    location    "0.135";
    object      p;
}
// * * * * * * * * * * * * * * * * * * * * * * * * * * * * * * * * * * * * * //

dimensions      [0 2 -2 0 0 0 0];

internalField   nonuniform List<scalar> 
11200
(
150.918072647
147.989471217
146.875621274
146.348291618
145.980964195
145.686188877
145.424548908
145.176015073
144.93150208
144.686440229
144.438132344
144.184823681
143.92528216
143.65857211
143.383926566
143.100672011
142.80818254
142.505852101
142.193081842
141.86928361
141.533833605
141.186082774
140.825372652
140.451035235
140.062384779
139.65871978
139.239323845
138.803466403
138.350403478
137.879378318
137.389621973
136.880353808
136.350781665
135.800101835
135.227499819
134.632151265
134.013222159
133.369868972
132.701238996
132.006470862
131.284694892
130.535033333
129.75660053
128.948502962
128.109839127
127.23969927
126.337164906
125.401308091
124.431190347
123.425861159
122.384355889
121.305692963
120.188870147
119.032859705
117.836602203
116.598998649
115.318900552
113.995097396
112.626300865
111.211124962
109.748061
108.235446065
106.671422694
105.053889975
103.3804379
101.648261427
99.8540501123
97.993843905
96.0628387126
94.0551199896
91.9632992174
89.7780185033
87.4870790603
85.0742983403
82.5175980065
79.785334176
76.8299357684
73.5789031873
69.8788744378
65.1165511163
149.125030573
147.766856814
146.975886251
146.475873503
146.084887549
145.761008046
145.476490664
145.211892896
144.956410216
144.703894181
144.450517442
144.193766351
143.931903787
143.663653184
143.388013999
143.104151306
142.811327619
142.508860057
142.196090145
141.872356033
141.537007547
141.189368591
140.828796181
140.454621697
140.066148889
139.662670545
139.243467451
138.807807223
138.354944623
137.884121969
137.394569417
136.885504919
136.356134241
135.805656711
135.233259988
134.638120048
134.019402632
133.376264143
132.707851859
132.013304474
131.291752464
130.54231831
129.764116686
128.95625451
128.117830844
127.247936663
126.345654423
125.410057376
124.440208559
123.43515936
122.393947532
121.315594483
120.199101675
119.043445944
117.847573527
116.610392482
115.330763081
114.007485685
112.639285487
111.224793382
109.762522123
108.250836376
106.687912446
105.071687618
103.399794355
101.669490773
99.877561543
98.0201694203
96.0926750702
94.0893938682
92.0032569646
89.8253076136
87.5439995307
85.1441972147
82.6055064958
79.899421341
76.9851437114
73.8048249339
70.2556410884
66.1424425827
148.129840221
147.475640175
146.923285381
146.485669229
146.114047747
145.791949083
145.502853022
145.232623677
144.97216601
144.715691115
144.459313973
144.20035282
143.936895528
143.66751502
143.391090109
143.106692065
142.813511171
142.510808779
142.197886573
141.874067678
141.538689982
141.19111418
140.830595391
140.45648048
140.068076975
139.664675003
139.245553038
138.809977614
138.357203172
137.886472218
137.397015657
136.888053423
136.358794944
135.808433684
135.236152307
134.641127418
134.022526406
133.379506125
132.711214701
132.016791752
131.295368628
130.546068757
129.768007931
128.96029439
128.122028768
127.252303938
126.35020467
125.414807052
124.445177609
123.440372032
122.399433372
121.321389514
120.205249836
119.05000086
117.854600682
116.617971856
115.338992383
114.0164844
112.649200022
111.235803347
109.774847379
108.264745253
106.703733226
105.089840418
103.420830101
101.694109941
99.9066379338
98.0548152466
96.1343276236
94.1399363686
92.065191643
89.9020302503
87.6403568002
85.2672534038
82.7659955052
80.1147154874
77.2854230759
74.2464692204
70.9618304035
67.4083825083
147.580079
147.216698045
146.816800945
146.447812014
146.110197406
145.802097641
145.516737582
145.246037562
144.983670188
144.725008454
144.466634293
144.206016099
143.941253948
143.670880462
143.393719451
143.108788291
142.815230584
142.512270095
142.199179684
141.875259426
141.539818343
141.192166345
140.831662392
140.457582193
140.0692155
139.665854392
139.24677706
138.811248816
138.358523016
137.887841221
137.398433286
136.8895175
136.360301218
135.809982581
135.237750893
134.642782003
134.0242423
133.38129113
132.71307505
132.018733857
131.297399855
130.548197525
129.770244056
128.962649544
128.12451691
127.254941898
126.35301284
125.417810221
124.448405939
123.443862067
122.40322952
121.325545793
120.209831985
119.055088949
117.86029235
116.624386427
115.346276138
114.02481711
112.658802485
111.246946887
109.787867925
108.280068471
106.72188777
105.111467573
103.446705314
101.725201693
99.9441813569
98.1003923076
96.1899815063
94.2083389873
92.1499075551
90.0079571129
87.7742547727
85.4387561222
82.9893674567
80.4119819356
77.6918391165
74.819209008
71.7976647764
68.6643433532
147.2460311
147.01423601
146.712824527
146.401848924
146.0970114
145.804990556
145.526018134
145.256895895
144.993940222
144.73386095
144.473897629
144.211812777
143.945813779
143.67445145
143.396528984
143.111029317
142.817059746
142.513811032
142.200527859
141.876487629
141.540985441
141.19332491
140.832809336
140.458728524
140.070384729
139.66706145
139.248031718
138.812558442
138.359893616
137.889278182
137.399941994
136.891103933
136.361972004
135.811743119
135.239603482
134.644729537
134.026287519
133.383433471
132.715318728
132.021084029
131.299863324
130.550783578
129.772964539
128.96551919
128.127553702
127.258167682
126.356454052
125.421498805
124.452380478
123.448169813
122.40792816
121.330705585
120.215538547
119.061446683
117.867428607
116.632456403
115.355468125
114.035358844
112.670971658
111.261084694
109.804397136
108.299497047
106.744846559
105.138751317
103.479317846
101.764404367
99.9915633694
98.1579728949
96.2603533901
94.2948705715
92.2570275751
90.1415593015
87.9423563808
85.6524982016
83.2645605655
80.7715288347
78.1691989937
75.4620055247
72.6713067158
69.8478040088
147.042638709
146.86673706
146.625543267
146.358219039
146.081034174
145.804398556
145.532712123
145.266214372
145.003453747
144.742450149
144.481168633
144.217742082
143.950544934
143.678186251
143.399473032
143.113367485
142.818947512
142.515373697
142.201863312
141.877670569
141.542072051
141.194355812
140.833812282
140.459731664
140.071403112
139.668105698
139.249109789
138.813676257
138.361055617
137.8904876
137.401201104
136.892414219
136.363334386
135.813158576
135.241073541
134.646256489
134.027875697
133.385090858
132.717053016
132.022906053
131.301786581
130.552822104
129.775134103
128.967838287
128.130043934
127.260855135
126.359370461
125.424682898
124.455879703
123.452041458
122.412241571
121.33554499
120.221006246
119.067666979
117.874552691
116.640668737
115.364996
114.046484082
112.68403997
111.276520188
109.822704646
108.321299736
106.770922334
105.170056849
103.517036091
101.810010202
100.046908417
98.225397203
96.3428368116
94.3962416583
92.3822559164
90.2971679262
88.1370115089
85.8978452331
83.5763837923
81.1712755288
78.6855899828
76.1314889228
73.5359382854
70.9460700724
146.919522057
146.763914867
146.557614112
146.321053744
146.065581008
145.802304731
145.537695477
145.274191611
145.012063897
144.750484477
144.48811928
144.223491729
143.955171952
143.681851296
143.402357486
143.115642864
142.820762455
142.516850421
142.203098755
141.878739556
141.543030976
141.195246517
140.834667212
140.460575371
140.072251827
139.668970812
139.249999818
138.814597531
138.36201295
137.891484928
137.402241948
136.893502048
136.364472894
135.81435204
135.242327424
134.647577298
134.029270567
133.386567522
132.718620531
132.024573755
131.303562423
130.554717215
129.777164405
128.970023642
128.132409574
127.263431587
126.362194579
125.427799255
124.459342219
123.455915749
122.416607329
121.340499242
120.226667196
119.074178665
117.882090621
116.649446325
115.375270739
114.058566598
112.698311674
111.293441128
109.842855951
108.345396636
106.799833933
105.204855299
103.559048945
101.860885747
100.108701554
98.3006827408
96.4348599725
94.5091193206
92.52124746
90.4690388351
88.3505157859
86.1643478176
83.910606992
81.592056894
79.2162573056
76.7988266289
74.3666718995
71.959197735
146.84544254
146.695432901
146.50867845
146.292575025
146.052871712
145.800054052
145.541421375
145.280688491
145.019327961
144.757413363
144.494203786
144.228575716
143.959288535
143.685120887
143.404929155
143.117663421
142.822362154
142.518138023
142.204161497
141.87964541
141.543831755
141.195981104
140.835364401
140.461256059
140.072931558
139.669660655
139.250707976
138.815330147
138.362774804
137.892279989
137.403073774
136.894374111
136.365388834
135.815315798
135.243343139
134.648649551
134.030404765
133.387769883
132.719897952
132.025935157
131.305022696
130.556295167
129.778879412
128.971898202
128.134470575
127.265711762
126.364733782
125.430645951
124.462555298
123.459567078
122.420784623
121.345308948
120.23223853
119.080668573
117.889689873
116.65838734
115.385838152
114.071109294
112.713250974
111.31129779
109.864256738
108.371107798
106.83079663
105.242226558
103.604253297
101.915681624
100.17526632
98.3817217291
96.5337470953
94.6300783514
92.6695849509
90.6514374152
88.575393552
86.4422701826
84.2546875159
82.0181901372
79.7428324811
77.44524816
75.150156964
72.8896195166
146.803166349
146.653719192
146.477304901
146.273568874
146.044039275
145.798334881
145.543979778
145.28534719
145.024647092
144.762560432
144.498771246
144.23242157
143.96241976
143.687617045
143.406896583
143.119210119
142.823585589
142.519120466
142.204969426
141.880330904
141.544434694
141.196531469
140.835884397
140.461762545
140.073435332
139.670171101
139.251231763
138.815872289
138.363339333
137.89287037
137.4036932
136.895025757
136.366076072
135.816042377
135.244113354
134.649468493
134.031278589
133.38870632
132.720907058
132.027029935
131.306215585
130.557600529
129.780316842
128.973492088
128.136250347
127.267713027
126.366999712
125.433228977
124.465519127
123.462988863
122.424757871
121.349947328
120.237680251
119.087081673
117.897278616
116.667399848
115.396575334
114.083935337
112.728611717
111.329735107
109.886434174
108.397835303
106.86306265
105.281239554
103.651493032
101.972962982
100.24481916
98.4662904346
96.6367148373
94.7556202364
92.8228539575
90.8387841383
88.8046114994
86.7228331729
84.5979046757
82.4371364149
80.2518017023
78.0583466314
75.8788605449
73.7395777835
146.783890093
146.634012774
146.462051153
146.264117943
146.039559772
145.797444792
145.545314669
145.287811702
145.027491438
144.765337967
144.501255941
144.234529508
143.964148944
143.689006646
143.408001849
143.120088311
142.824288959
142.519693432
142.20544806
141.880743576
141.544803201
141.19687227
140.836209755
140.462081607
140.073755135
139.670496762
139.251567282
138.816220917
138.363703891
137.893253546
137.404097668
136.895454373
136.36653204
135.816529419
135.24463591
134.650031948
134.031889521
133.389372758
132.721638508
132.027836534
131.307111948
130.558604278
129.781448683
128.974776947
128.137718431
127.269401019
126.368952167
125.435499995
124.46817442
123.466108275
122.428438418
121.354306831
120.242861741
119.093258771
117.904662118
116.676245827
115.407195188
114.096707917
112.743996708
111.34829276
109.908843791
108.424922998
106.895834022
105.32091928
103.699573107
102.031261653
100.315552608
98.5521592421
96.7410079133
94.8823352303
92.9768368567
91.025882222
89.031822674
86.9984165763
84.9313808286
82.8390774582
80.733255908
78.6297078984
76.5481711287
74.510627918
146.783892865
146.63402902
146.46207833
146.264154333
146.039604611
145.797497247
145.545373838
145.287876774
145.027561732
144.765412917
144.501335081
144.234612463
143.964235424
143.689096437
143.408094824
143.120184403
142.824388172
142.519795828
142.205553752
141.880852723
141.544916018
141.196989046
140.836330871
140.462207573
140.07388666
139.670634608
139.251712401
138.816374478
138.363867317
137.893428433
137.404286031
136.895658657
136.366755186
135.81677498
135.244908189
134.650336168
134.032232022
133.389761245
132.722082448
132.028348074
131.307705206
130.55929633
129.782260315
128.97573342
128.138850396
127.27074567
126.370554658
125.437415166
124.470468875
123.4688629
122.431751415
121.358297402
120.247674563
119.099069415
117.911683625
116.68473666
115.417468868
114.109144815
112.759057019
111.366533782
109.930947237
108.451712268
106.928307682
105.360288217
103.747303192
102.089123813
100.385683027
98.6371324356
96.8439189429
95.0068981269
93.1275511429
91.2080706435
89.2516256904
87.262855188
85.2482828988
83.2168260634
81.180295939
79.1537468957
77.1551284984
75.2035873698
146.803174715
146.653768301
146.477387034
146.273678788
146.044174641
145.798493018
145.544157931
145.285542945
145.024858417
144.762785636
144.499008941
144.232670643
143.962679347
143.687886519
143.407175548
143.119498392
142.823883191
142.519427589
142.205286408
141.880658223
141.544772991
141.196881598
140.836247498
140.462140275
140.073829451
139.670583989
139.251666249
138.816331794
138.363827996
137.893393156
137.404256111
136.895636016
136.366742381
135.816775275
135.244925667
134.650375899
134.032300267
133.389865707
132.722232539
132.028555252
131.307983372
130.559662396
129.782734827
128.976341307
128.139621899
127.271717491
126.371771362
125.438930878
124.472349332
123.471187911
122.434617838
121.361822749
120.25200136
119.104370485
117.918168475
116.692659221
115.427136853
114.120931259
112.773414109
111.38400816
109.952196974
108.477541146
106.959679947
105.398365019
103.793483697
102.145100145
100.453509172
98.7192616381
96.9432599752
95.1268819438
93.2720557367
91.3815779429
89.4593759456
87.5107037465
85.5425649044
83.5641285773
81.5870912562
79.6258920399
77.6972937526
75.8187929802
146.845456672
146.695515984
146.508817181
146.292760298
146.053099441
145.8003196
145.541720057
145.28101625
145.019681403
144.757789676
144.494600674
144.228991345
143.959721487
143.68557014
143.405394068
143.118143711
142.822857867
142.518649486
142.204689277
141.880190309
141.544394866
141.196563849
140.835968545
140.461884151
140.073586763
139.670346761
139.251429626
138.816092967
138.363585589
137.893146922
137.404006692
136.895384833
136.366491592
135.8165278
135.244685271
134.650147335
134.032089462
133.389679989
132.722080899
132.028448669
131.307935218
130.559688925
129.782855768
128.976580611
128.14000864
127.272286978
126.372566482
125.440003734
124.4737632
123.473019596
122.436960518
121.364789425
120.255729028
119.109025159
117.923951262
116.699813665
115.435957783
114.131775519
112.786713864
111.400284327
109.972078456
108.501781409
106.989197738
105.434269333
103.837102289
102.198003116
100.517521927
98.7965531069
97.0364043355
95.2388858257
93.4064492876
91.5423614534
89.6509287937
87.7377587036
85.8100776921
83.8770686611
81.9501902349
80.0434176186
78.1729251217
76.3556836373
146.919542305
146.764034046
146.557812497
146.321317764
146.065904498
145.802680881
145.538117551
145.274653859
145.012561554
144.751013627
144.488676747
144.224074986
143.95577906
143.682480864
143.403008646
143.116315235
142.821456099
142.517565775
142.203836579
141.879500928
141.543817372
141.196059938
140.835510246
140.46145141
140.073165032
139.669926422
139.251004221
138.815658433
138.363139648
137.892688638
137.403536175
136.89490306
136.366000327
135.816029584
135.244183477
134.649646278
134.031594559
133.389197974
132.721620097
132.028019313
131.307549813
130.559362679
129.782607141
128.976432003
128.139987245
127.272425829
126.372905727
125.440592155
124.474660039
123.47429675
122.438705196
121.367107364
120.258748359
119.112901062
117.928871573
116.706005627
115.443696132
114.141392184
112.79860984
111.414944949
109.990088086
108.523841588
107.016143719
105.467092992
103.876989427
102.24637347
100.576074756
98.8672732102
97.121580443
95.3411409244
93.528753476
91.6880188912
89.8235173729
87.9410244992
86.0477725232
84.1527505801
82.267048733
80.4042565061
78.5804185759
76.8129960274
147.042665714
146.866896009
146.625806476
146.358567566
146.081459284
145.804890953
145.533262872
145.266815992
145.004100121
144.743136295
144.481890544
144.218496593
143.951329633
143.678999417
143.400313591
143.114234957
142.819841926
142.516295494
142.202813253
141.878649689
141.543081616
141.195397666
140.834890888
140.460852775
140.072571449
139.66932722
139.250392183
138.815028902
138.362489869
137.892017262
137.402842933
136.894188562
136.365265966
135.815277523
135.243416693
134.648868632
134.030810888
133.388414259
132.720843704
132.027259309
131.306817349
130.55867142
129.781973785
128.975876889
128.139535104
127.272106712
126.372756138
125.440656423
124.474991967
123.474961603
122.439782101
121.368692191
120.260957177
119.115874297
117.932779053
116.711052715
115.450131086
114.149514709
112.808781037
111.427599058
110.005746843
108.543132033
107.03981702
105.49604775
103.91228968
102.289271044
100.628035641
98.9300058927
97.197055695
95.431597606
93.6366857772
91.8161381621
89.9746766237
88.1180903798
86.2534393042
84.3893160726
82.5362363112
80.7072879936
78.9185225625
77.1886515719
147.246065517
147.014439566
146.713159022
146.402288942
146.097544951
145.805605432
145.526703045
145.257641628
144.994739368
144.734707556
144.474786953
144.212741122
143.946778376
143.675450387
143.397561159
143.112094366
142.818157923
142.514943011
142.201694487
141.87768993
141.542224893
141.194602559
140.834127384
140.460100046
140.07181381
139.668554093
139.249596452
138.81420593
138.361636809
137.891132578
137.401926073
136.893239772
136.364286218
135.814268506
135.242380863
134.647809312
134.02973242
133.387322126
132.719744656
132.0261615
131.305730541
130.557607316
129.780946614
128.974904031
128.13863781
127.271310962
126.372093635
125.440165766
124.474720068
123.474965463
122.440130916
121.36946987
120.262265358
119.117836026
117.935543211
116.714799046
115.455075567
114.155917636
112.816956011
111.437923268
110.018672757
108.559200977
107.059674414
105.520460865
103.942167058
102.325682192
100.672228987
98.9834239234
97.261345454
95.5086108844
93.7284608857
91.9248524483
90.1025573886
88.267269547
86.4257359186
84.5859440685
82.7575065839
80.9525694871
79.1866484203
77.4796023995
147.580120808
147.216949846
146.817209216
146.448343898
146.110836962
145.802829266
145.517547514
145.2469149
144.984606322
144.725996564
144.46766902
144.207093336
143.942370712
143.672034848
143.394910635
143.110016565
142.816497379
142.51357788
142.200531436
141.876658977
141.541274748
141.193695036
140.833235826
140.459204206
140.070899928
139.667612696
139.248621172
138.813192681
138.360583063
137.890036844
137.400787645
136.892058595
136.363062749
135.813003639
135.241075938
134.646466266
134.028354045
133.385912282
132.718308355
132.024705237
131.304262809
130.556138491
129.779489116
128.973472866
128.137251136
127.269990753
126.37086652
125.439064084
124.473783152
123.47424095
122.43967627
121.369354527
120.26257322
119.118668423
117.937022428
116.717072905
115.458324039
114.160357522
112.822847869
111.445579842
110.028468651
108.571583658
107.075176295
105.539712682
103.965911996
102.35479075
100.707713474
99.0264499052
97.3132372823
95.5708472941
93.8026546993
92.0127048176
90.205771372
88.387402064
86.5639554839
84.7426388989
82.9317379284
81.1416080739
79.385437919
77.6818222784
148.129894183
147.475954346
146.923777433
146.486298294
146.114794211
145.792794065
145.503780551
145.233621393
144.973224248
144.716802234
144.460471927
144.201552865
143.938134014
143.668789264
143.392398337
143.108033498
142.81488638
142.512220525
142.199340008
141.875569343
141.540240338
141.192682618
140.832217138
140.458163671
140.069826654
139.666499024
139.247461983
138.811984696
138.359324474
137.888726826
137.399426075
136.89064595
136.361600063
135.81149248
135.239518392
134.644864726
134.026710502
133.384229228
132.716589461
132.022954971
131.302486129
130.554342001
129.777681531
128.97166509
128.135456633
127.268226088
126.369151986
125.437424398
124.472248206
123.47284707
122.438467903
121.36838564
120.2619092
119.118388381
117.937221902
116.717866672
115.459849209
114.162779628
112.826366091
111.450433118
110.034942897
108.58002014
107.085981078
105.553367077
103.982983527
102.37594393
100.733719607
99.0581939916
97.3517200966
95.6171832919
93.8580563525
92.078448137
90.2831297309
88.477527289
86.667653661
84.8598880511
83.060872761
81.278129818
79.5187270826
77.7912069952
149.125132011
147.767316591
146.976570999
146.476730357
146.085893454
145.762142329
145.477736517
145.213237438
144.957843387
144.705407983
144.452105433
144.195423248
143.933625092
143.665434834
143.389852018
143.106041454
142.813264875
142.510837769
142.198102888
141.874411542
141.539104004
141.191530962
140.831040278
140.456948501
140.068563873
139.665182715
139.246087921
138.810547793
138.357821012
137.887154689
137.397783803
136.888932429
136.359814457
135.809634247
135.23758735
134.642861431
134.024637613
133.382089858
132.71438635
132.020691484
131.300166769
130.551972144
129.775267453
128.969214393
128.13297863
127.265732192
126.366656165
125.434943733
124.469803597
123.470463851
122.436176556
121.366222965
120.25991965
119.116625663
117.93575101
116.716766691
115.459216058
114.162727775
112.827032846
111.45198307
110.037572818
108.583964422
107.091517651
105.560823779
103.992744755
102.388457601
100.749503642
99.0778399964
97.3758947111
95.6466410139
93.8936263669
92.1210185562
90.3336220512
88.5368542323
86.7366119486
84.9387598647
83.1488243716
81.3715565016
79.6017733123
77.8096462487
150.918240705
147.990143471
146.876616693
146.349547953
145.982451274
145.687882193
145.426430074
145.178070708
144.93372242
144.688818272
144.440663296
144.187504667
143.928112144
143.661551983
143.387059309
143.103962784
142.811638598
142.509482109
142.196890725
141.873256925
141.53797552
141.190406414
140.829880494
140.455732566
140.067280417
139.663824785
139.244651773
138.809036107
138.356235779
137.885496167
137.396052219
136.887128161
136.357937964
135.807686031
135.235567944
134.640771225
134.022476235
133.379857135
132.712082945
132.018318519
131.297725759
130.549465112
129.772697148
128.966584391
128.130293469
127.262997556
126.363879093
125.43213284
124.466969369
123.467619081
122.433336831
121.36340721
120.257150759
119.113931281
117.933164391
116.714327535
115.456971905
114.160736335
112.825363503
111.45071891
110.03681311
108.583827572
107.092144584
105.562381904
103.995432201
102.392507621
100.755189786
99.0854870421
97.3858937398
95.6594166438
93.9096610294
92.140864035
90.3579154232
88.5663360145
86.7721801219
84.9819664087
83.2021493997
81.4376109947
79.6681689953
77.7689398646
57.7163413971
54.1652419965
51.7751281787
49.8202132488
48.1516879433
46.698973465
45.4176206664
44.2774576246
43.2564086206
42.337439211
41.5069954149
40.7540624004
40.069543185
39.4458209109
38.8764351423
38.3558381808
37.8792117466
37.4423296841
37.0414561448
36.6732693478
36.33480315
36.0234011997
35.7366795859
35.4724950783
35.2289178739
35.0042075928
34.7967920983
34.6052487141
34.4282874916
34.2647365096
34.1135289429
33.9736916203
33.8443354178
33.724646809
33.613880576
33.5113526438
33.4164341376
33.3285461957
33.2471597447
33.1718114636
33.1021428418
33.037732854
32.9781169468
32.9229104881
32.8717803644
32.8244205155
32.7805473885
32.7398965046
32.7022209991
32.6672908988
32.6348928998
32.6048296417
32.5769185513
32.5509898446
32.5268851014
32.5044573175
32.4835708817
32.4641009029
32.4459316018
32.428954955
32.41307039
32.3981853233
32.3842153014
32.371082949
32.3587163554
32.3470480806
32.3360155995
32.3255618911
32.3156348038
32.3061871946
32.2971751869
32.2885578612
32.2802976027
32.2723609247
32.2647183348
32.2573423396
32.2502066269
32.2432897426
32.2365799627
32.230046193
32.2236628535
32.2174271921
32.211323402
32.205332493
32.1994521102
32.1936671614
32.1879723817
32.1823662042
32.1768947762
32.1714646195
32.1660886116
32.1607678433
32.1555001414
32.1502821329
32.1451112484
32.1399861449
32.1349062809
32.1298722767
32.1248861538
32.1199505502
32.1150674096
32.1102386999
32.1054678923
32.1007605364
32.0961242067
32.0915681032
32.0871025311
32.0827388122
32.0784893146
32.0743682461
32.0703931597
32.0665843935
32.0629628601
32.0595527116
32.0563860464
32.0534999278
32.0509323393
32.0487246974
32.0469252357
32.0455907308
32.0447892287
32.0445984368
32.0451058354
32.0464140651
32.0486422143
32.0519271871
32.0564304224
32.0623423638
32.0698868487
32.0793269601
32.0909701501
32.1051867714
32.1224251043
32.1432238301
32.1682331868
32.1982409994
32.2341921902
32.2772378015
32.3287856598
32.3905224744
32.4643646836
32.5522688058
32.6556920201
32.7744231681
32.9044296653
33.0340360003
33.1416445634
33.1863461739
33.1102477911
32.8290286953
32.2296503273
31.1763014697
29.5416252972
27.2499193297
24.2974031185
20.7572601709
16.753114713
12.2443066192
6.95500295694
1.6849784289
60.898642685
56.8458039325
54.135346902
51.9857196574
50.1874407665
48.6417115357
47.2898495053
46.0941574715
45.0280679864
44.0716746287
43.2095057987
42.4292225352
41.7207869161
41.0758991508
40.4875925538
39.9499376324
39.4578232996
39.0067955631
38.5929389696
38.2127883342
37.8632618681
37.5416086345
37.2453667795
36.9723277335
36.7205066644
36.4881161466
36.2735432913
36.075330068
35.8921551736
35.7228193169
35.5662312297
35.4213967566
35.2874080649
35.1634356548
35.0487196321
34.9425627227
34.8443232928
34.7534094889
34.669272452
34.5913943739
34.5192757652
34.4524386057
34.3905559399
34.3332773293
34.280247417
34.2311387839
34.1856514401
34.1435108578
34.1044621685
34.0682680172
34.0347078237
34.003577542
33.9746878786
33.9478627285
33.9229374486
33.8997596195
33.8781883062
33.8580937726
33.8393553545
33.8218606642
33.8055050513
33.7901922158
33.7758340884
33.7623498316
33.7496644284
33.73770763
33.7264142291
33.7157247705
33.7055852785
33.6959464699
33.6867623701
33.6779900617
33.6695905761
33.6615288223
33.6537737495
33.6462963263
33.6390672133
33.6320655303
33.6252584841
33.6186331643
33.6121723522
33.6058570549
33.599675144
33.5936102603
33.5876577545
33.5818031135
33.5760399142
33.5703605365
33.5647563666
33.559207344
33.5537149064
33.5482787359
33.5428951036
33.5375591218
33.5322690416
33.5270229475
33.5218195139
33.5166588365
33.5115431459
33.5064735306
33.5014516326
33.4964784494
33.4915574251
33.4866933422
33.4818934512
33.4771659873
33.4725208783
33.4679675014
33.4635163997
33.4591808332
33.4549763603
33.4509217916
33.4470373024
33.4433422439
33.4398711722
33.436655491
33.4337305436
33.4311373325
33.4289179316
33.4271290388
33.4258342359
33.425113459
33.4250424869
33.4257295194
33.4272881157
33.4298537299
33.4335829233
33.4386718898
33.445343281
33.4538637723
33.4645397253
33.4777522531
33.4939624425
33.5137156668
33.537692028
33.5666992716
33.6017252978
33.6439755428
33.6949224585
33.7563405284
33.8302407056
33.9186733973
34.0231341085
34.1432838663
34.27463119
34.4041685322
34.5103680371
34.5466807999
34.452895361
34.1384247498
33.4829489922
32.3454997839
30.6000387064
28.1800825267
25.0935234082
21.4175902223
17.2747671504
12.6433796375
7.26157169766
1.82476469716
63.1069635808
59.1733185614
56.3077956223
54.0267343936
52.128527917
50.5062966041
49.094536486
47.8507770148
46.7452172943
45.7557404122
44.8653347727
44.0605676068
43.3306102229
42.6665817686
42.0610820694
41.5078533599
41.0015326321
40.5374701484
40.1115966304
39.7203244832
39.3604736593
39.029213413
38.7240161655
38.4426186916
38.1829900763
37.9433034769
37.7219116551
37.5173262854
37.3281989194
37.1533053087
36.9915310453
36.8418598362
36.7033624796
36.5751880257
36.4565555348
36.3467465966
36.2450989642
36.1510013478
36.0638898728
35.9832478204
35.9086034187
35.8394939182
35.775484727
35.7161963624
35.6612900869
35.6104452311
35.5633606358
35.519752319
35.4793551101
35.4419224042
35.4072254042
35.3750522441
35.3452061516
35.3175042127
35.2917755708
35.2678622504
35.245617789
35.2249074615
35.2056058954
35.1875967284
35.1707715411
35.1550306548
35.1402823936
35.1264426779
35.1134334109
35.1011816241
35.0896198377
35.0786865113
35.0683255467
35.0584853308
35.0491180372
35.0401793533
35.0316268596
35.0234254509
35.0155428515
35.0079486579
35.0006077182
34.993491543
34.9865885228
34.9798835239
34.9733502935
34.9669689882
34.9607255577
34.9546052182
34.9485989995
34.9426943857
34.9368827878
34.9311552084
34.9255027892
34.919916715
34.9143893747
34.9089165524
34.9034935437
34.8981153047
34.8927796953
34.8874841032
34.8822267609
34.8770072101
34.8718264548
34.8666842438
34.861581504
34.8565188193
34.8514989459
34.8465261727
34.8416075095
34.8367501247
34.831962446
34.8272520162
34.8226279605
34.8181025348
34.8136898278
34.8094058246
34.8052706914
34.8013026551
34.7975327277
34.7939899815
34.7907062392
34.7877203222
34.7850729883
34.7828186354
34.7810156347
34.7797419055
34.779071852
34.779107006
34.7799579713
34.7817600007
34.7846669013
34.7888712264
34.7945943335
34.8021035038
34.8117077527
34.823788282
34.838811783
34.857331885
34.8800388531
34.9077577985
34.9415041013
34.9825209307
35.0323214473
35.0927306574
35.1658212599
35.2536891893
35.3578174966
35.4776809255
35.6082092892
35.7344339707
35.8375251395
35.861368386
35.746505445
35.3963464291
34.6845615413
33.466283403
31.6170607699
29.0783902331
25.8677363646
22.0645600366
17.7888653343
13.0370352222
7.56253955684
1.96053046923
64.9117880117
61.1874006277
58.2852038315
55.9330055715
53.96672205
52.2865989789
50.8270081747
49.5436266907
48.4048465294
47.3871060162
46.4722950862
45.6461592412
44.8972562248
44.2162450037
43.5953775669
43.0281308302