/*--------------------------------*- C++ -*----------------------------------*\
| =========                 |                                                 |
| \\      /  F ield         | OpenFOAM: The Open Source CFD Toolbox           |
|  \\    /   O peration     | Version:  2106                                  |
|   \\  /    A nd           | Website:  www.openfoam.com                      |
|    \\/     M anipulation  |                                                 |
\*---------------------------------------------------------------------------*/
FoamFile
{
    version     2.0;
    format      ascii;
    arch        "LSB;label=32;scalar=64";
    class       surfaceScalarField;
    location    "0.135";
    object      phi;
}
// * * * * * * * * * * * * * * * * * * * * * * * * * * * * * * * * * * * * * //

dimensions      [0 3 -1 0 0 0 0];

oriented        oriented;

internalField   nonuniform List<scalar> 
22100
(
3.38461200499e-05
1.61538799631e-05
2.24572091875e-05
1.13889108752e-05
1.62585517903e-05
6.19865737864e-06
1.27977742766e-05
3.46077748299e-06
1.08046398662e-05
1.99313432863e-06
9.60458634495e-06
1.20005340195e-06
8.85131810893e-06
7.53268050351e-07
8.36434886822e-06
4.86969025232e-07
8.04433062574e-06
3.20018010991e-07
7.83283554309e-06
2.1149483823e-07
7.69339219918e-06
1.39443112008e-07
7.60223528208e-06
9.11567219016e-08
7.54347266731e-06
5.87624688635e-08
7.50633617487e-06
3.7136400748e-08
7.48349741237e-06
2.28387210824e-08
7.46997773606e-06
1.35196688674e-08
7.46241473676e-06
7.56299859085e-09
7.45854883551e-06
3.8658749955e-09
7.45683229402e-06
1.71646231179e-09
7.45642938413e-06
4.02764973624e-10
7.45678361608e-06
-3.54433697074e-10
7.45747485847e-06
-6.91469453166e-10
7.45823901577e-06
-7.64362270473e-10
7.4589709925e-06
-7.32107429123e-10
7.45962274659e-06
-6.51766145692e-10
7.46017470483e-06
-5.51826413946e-10
7.46062519391e-06
-4.50214313446e-10
7.46098241598e-06
-3.56835432536e-10
7.46125901452e-06
-2.76158228414e-10
7.46146883175e-06
-2.09396478224e-10
7.46162505382e-06
-1.55890723979e-10
7.46173924084e-06
-1.13991485207e-10
7.46182103521e-06
-8.17442142767e-11
7.4618786196e-06
-5.76545166783e-11
7.46191672102e-06
-3.8241378899e-11
7.46193969537e-06
-2.31254197488e-11
7.46195198146e-06
-1.23982263429e-11
7.46195740823e-06
-5.47228991316e-12
7.46195804899e-06
-6.16866836953e-13
7.46195505612e-06
3.06444028875e-12
7.46194929919e-06
5.84120394689e-12
7.46194138777e-06
7.9743110116e-12
7.46193173455e-06
9.67554581421e-12
7.46192060669e-06
1.11127413766e-11
7.4619081221e-06
1.2452711418e-11
7.46189427354e-06
1.38277502549e-11
7.46187893074e-06
1.53494179736e-11
7.46186182876e-06
1.71374370086e-11
7.46184253625e-06
1.93461616599e-11
7.46182052669e-06
2.20621256328e-11
7.4617951527e-06
2.54076802538e-11
7.4617656476e-06
2.95094037997e-11
7.46173114173e-06
3.44857597483e-11
7.46169068556e-06
4.04313845099e-11
7.46164329752e-06
4.73807156478e-11
7.46158805782e-06
5.52654887295e-11
7.46152422622e-06
6.38916375076e-11
7.4614514506e-06
7.28477426673e-11
7.46137034517e-06
8.11549811428e-11
7.46128327834e-06
8.70712109278e-11
7.46119619638e-06
8.70414457059e-11
7.46112147476e-06
7.46520461517e-11
7.46106810342e-06
5.33033018571e-11
7.4610543084e-06
1.3772458659e-11
7.46111605247e-06
-6.16869826869e-11
7.46131199804e-06
-1.95793187232e-10
7.46173743964e-06
-4.25204862764e-10
7.46254394182e-06
-8.0621055561e-10
7.46396937957e-06
-1.42513100795e-09
7.46637312755e-06
-2.40347975641e-09
7.47020838871e-06
-3.83507910914e-09
7.47670930261e-06
-6.5008359284e-09
7.48757241892e-06
-1.08631167024e-08
7.50590797902e-06
-1.83355845525e-08
7.53937303393e-06
-3.34650473587e-08
7.60912598023e-06
-6.97528624105e-08
7.77703789893e-06
-1.67911777146e-07
8.23545906324e-06
-4.58421043789e-07
9.71562100749e-06
-1.48016190371e-06
-5.51008630931e-06
1.5225707372e-05
5.02175947832e-05
1.59362851645e-05
4.42441114308e-05
1.73623942285e-05
3.77795010594e-05
1.26632676723e-05
3.26461432427e-05
8.59413515552e-06
2.89380906853e-05
5.70118663055e-06
2.63596197921e-05
3.77852398585e-06
2.45875148296e-05
2.52537263796e-06
2.33734722081e-05
1.70101123062e-06
2.25435226456e-05
1.14996715301e-06
2.19782135692e-05
7.76803519841e-07
2.15955108769e-05
5.22145467782e-07
2.13387345015e-05
3.47932842816e-07
2.11684936646e-05
2.29003140656e-07
2.10573373972e-05
1.48292582261e-07
2.09861516552e-05
9.40244274611e-08
2.09416824538e-05
5.79888406506e-08
2.09148049885e-05
3.4440390267e-08
2.08993116067e-05
1.93590990374e-08
2.08910953618e-05
9.93245038138e-09
2.0887303762e-05
4.19402807431e-09
2.08862489733e-05
6.99991438658e-10
2.08865053836e-05
-9.48193025179e-10
2.08873912823e-05
-1.65044108777e-09
2.08885472015e-05
-1.88800618538e-09
2.08897384815e-05
-1.8427904027e-09
2.08908406164e-05
-1.65347856524e-09
2.08917980802e-05
-1.40702329887e-09
2.08925956445e-05
-1.15366839133e-09
2.08932404545e-05
-9.20277040289e-10
2.08937510263e-05
-7.19425951285e-10
2.08941512454e-05
-5.55787814028e-10
2.08944686219e-05
-4.31280743616e-10
2.08946963882e-05
-3.09613801923e-10
2.08948575026e-05
-2.18979265065e-10
2.08949698031e-05
-1.50766850456e-10
2.08950453969e-05
-9.88843196945e-11
2.08950936361e-05
-6.0701833341e-11
2.08951235364e-05
-3.53340374499e-11
2.08951403257e-05
-1.72985316176e-11
2.08951470793e-05
-3.56482438791e-12
2.08951462131e-05
6.79918926786e-12
2.08951395298e-05
1.46887860359e-11
2.08951283282e-05
2.08518592413e-11
2.08951135146e-05
2.58769233227e-11
2.08950956276e-05
3.03049218827e-11
2.08950749359e-05
3.45278251254e-11
2.08950515111e-05
3.88306013664e-11
2.08950252729e-05
4.34640890527e-11
2.08949959762e-05
4.8734420197e-11
2.0894963375e-05
5.47248197336e-11
2.08949272129e-05
6.15841942367e-11
2.08948872879e-05
6.94154819909e-11
2.08948435357e-05
7.82158863371e-11
2.08947961487e-05
8.78189798326e-11
2.08947457923e-05
9.7774038915e-11
2.08946939964e-05
1.07135382923e-10
2.08946437588e-05
1.14219643326e-10
2.08946004371e-05
1.1623695905e-10
2.08945732554e-05
1.08348021431e-10
2.0894577249e-05
8.30217839488e-11
2.08946383566e-05
2.58301316173e-11
2.08948054905e-05
-9.25759132139e-11
2.08951473397e-05
-2.88553178465e-10
2.08957817166e-05
-6.20466473143e-10
2.08968258096e-05
-1.10548593996e-09
2.08984484061e-05
-1.81796583843e-09
2.09010112529e-05
-2.98754239631e-09
2.0905068004e-05
-4.86243852976e-09
2.09114974855e-05
-7.85416741479e-09
2.09217402024e-05
-1.26459036028e-08
2.09383172276e-05
-2.04119729133e-08
2.0965411708e-05
-3.35953008725e-08
2.10100525033e-05
-5.55039328456e-08
2.10855646344e-05
-9.3847699255e-08
2.12181753825e-05
-1.66075688917e-07
2.14614301074e-05
-3.13007376221e-07
2.19246451324e-05
-6.31126512226e-07
2.28231974749e-05
-1.35697295433e-06
2.4491955698e-05
-3.14891970119e-06
-7.13729309881e-06
2.61191614739e-05
5.35171053529e-05
1.24191798056e-05
5.29349683158e-05
1.7944531259e-05
4.96538399832e-05
1.594439593e-05
4.5840181076e-05
1.24077939342e-05
4.24400917057e-05
9.10127579164e-06
3.97291712872e-05
6.48944413475e-06
3.76873042639e-05
4.56723932513e-06
3.61976608618e-05
3.19065426487e-06
3.51326097019e-05
2.21501794122e-06
3.43823642746e-05
1.52704859563e-06
3.38606232106e-05
1.04388623377e-06
3.35023433534e-05
7.06212479607e-07
3.32595994943e-05
4.71746862224e-07
3.30975911048e-05
3.10300904657e-07
3.29913380491e-05
2.00277458136e-07
3.29231005343e-05
1.26226331494e-07
3.2880418542e-05
7.71223148454e-08
3.28546412221e-05
4.51362724032e-08
3.28398240599e-05
2.47493755969e-08
3.28319099115e-05
1.21078688465e-08
3.28280526605e-05
4.55691329783e-09
3.28270735778e-05
3.06083874392e-11
3.28272722355e-05
-1.84925862668e-09
3.28281419863e-05
-2.75773562504e-09
3.28292811376e-05
-2.98170846146e-09
3.2830453286e-05
-2.82519236293e-09
3.28315351984e-05
-2.488353685e-09
3.28324720218e-05
-2.08985129285e-09
3.28332483652e-05
-1.69602482688e-09
3.28338698675e-05
-1.34046840193e-09
3.28343512962e-05
-1.03694840735e-09
3.28347081942e-05
-7.88109343901e-10
3.28349905529e-05
-5.92060787436e-10
3.28352189003e-05
-4.47501821402e-10
3.28353849647e-05
-3.17015245326e-10
3.283549769e-05
-2.11737788585e-10
3.28355743115e-05
-1.37363353522e-10
3.28356244957e-05
-8.54725176372e-11
3.28356555779e-05
-4.82816130308e-11
3.28356721115e-05
-1.99943337484e-11
3.28356775878e-05
1.38991371496e-12
3.28356746784e-05
1.76067816236e-11
3.28356654271e-05
3.00638280464e-11
3.28356513439e-05
3.99068812681e-11
3.28356334054e-05
4.82126428826e-11
3.28356122435e-05
5.57034779018e-11
3.28355882634e-05
6.28708632021e-11
3.28355616679e-05
7.01505220689e-11
3.28355323632e-05
7.81292350885e-11
3.28355005048e-05
8.66392043217e-11
3.28354663932e-05
9.57054616482e-11
3.28354305398e-05
1.05245379261e-10
3.28353938399e-05
1.14889723367e-10
3.28353578371e-05
1.23821154473e-10
3.28353251815e-05
1.30469969798e-10
3.28353003229e-05
1.32066689862e-10
3.28352901988e-05
1.24419024863e-10
3.28353051899e-05
1.01293448699e-10
3.28353621568e-05
5.13831080742e-11
3.28354897167e-05
-4.45834879366e-11
3.28357383786e-05
-2.22906678883e-10
3.28361951266e-05
-5.49375977706e-10
3.28368901582e-05
-9.83552463444e-10
3.28379029676e-05
-1.63312077388e-09
3.28394870051e-05
-2.68924069215e-09
3.28420301954e-05
-4.36077081922e-09
3.28460397363e-05
-6.99664019605e-09
3.28523374194e-05
-1.11596901769e-08
3.28622502106e-05
-1.77666178926e-08
3.28779674481e-05
-2.83629425637e-08
3.29031925582e-05
-4.56370244873e-08
3.29433492827e-05
-7.37520539927e-08
3.30084048296e-05
-1.20559523306e-07
3.3115583039e-05
-2.01025876596e-07
3.32943456529e-05
-3.44838172383e-07
3.35937287418e-05
-6.12390308543e-07
3.40863134165e-05
-1.12371106282e-06
3.4840679675e-05
-2.11133894547e-06
3.57231280909e-05
-4.03136706873e-06
-7.23060675316e-06
3.5816444261e-05
5.35105665053e-05
8.90861329017e-06
5.55742223162e-05
1.58808754392e-05
5.52424825585e-05
1.62761356257e-05
5.35977858836e-05
1.40524904826e-05
5.15418473902e-05
1.11572140814e-05
4.95802792993e-05
8.45101196444e-06
4.79243498641e-05
6.22316843046e-06
4.66181375495e-05
4.49686621705e-06
4.56304643615e-05
3.20269076382e-06
4.49051151861e-05
2.25239742833e-06
4.43840880729e-05
1.564913061e-06
4.40166924691e-05
1.0736078765e-06
4.37619671772e-05
7.26472028421e-07
4.35882706325e-05
4.83997390667e-07
4.34718744156e-05
3.16673653843e-07
4.33953687984e-05
2.02731925265e-07
4.33462045198e-05
1.26286525233e-07
4.33154746786e-05
7.58659687889e-08
4.32969480412e-05
4.32757822253e-08
4.3286333743e-05
2.27218704236e-08
4.32807440338e-05
1.01463088657e-08
4.32779502797e-05
2.82409881174e-09
4.32771451453e-05
-1.04426799205e-09
4.32773836348e-05
-2.99619255021e-09
4.32780937063e-05
-3.69154426693e-09
4.32789808302e-05
-3.71189115273e-09
4.32798787006e-05
-3.3856654455e-09
4.32807016127e-05
-2.91215866509e-09
4.32814125821e-05
-2.40644160882e-09
4.32820027673e-05
-1.93023666416e-09
4.32824785292e-05
-1.51247404886e-09
4.32828526547e-05
-1.16217814666e-09
4.32831357126e-05
-8.75200014737e-10
4.32833335826e-05
-6.45525148521e-10
4.32834791312e-05
-4.62717976724e-10
4.32835829975e-05
-3.15705413486e-10
4.32836427725e-05
-1.9716250264e-10
4.3283689848e-05
-1.32502910978e-10
4.32837206741e-05
-7.90274295457e-11
4.3283737281e-05
-3.65307302624e-11
4.32837433688e-05
-4.67242008305e-12
4.3283741252e-05
1.96934610563e-11
4.32837327478e-05
3.85003095692e-11
4.32837193464e-05
5.32401203885e-11
4.32837018804e-05
6.5644022463e-11
4.32836808834e-05
7.67199292422e-11
4.32836567248e-05
8.70994108467e-11
4.32836296951e-05
9.72772463285e-11
4.32836003151e-05
1.07594532167e-10
4.32835689323e-05
1.18063285167e-10
4.32835361195e-05
1.28509684332e-10
4.32835028218e-05
1.38500982832e-10
4.32834704624e-05
1.47200045542e-10
4.32834411123e-05
1.53145435586e-10
4.32834176989e-05
1.53900106772e-10
4.32834043148e-05
1.45502128481e-10
4.32834073412e-05
1.21450430869e-10
4.32834382014e-05
7.0469839399e-11
4.32835143643e-05
-2.47794142308e-11
4.32836582602e-05
-1.88510932227e-10
4.32838715111e-05
-4.36193076998e-10
4.32842805759e-05
-9.58440520461e-10
4.32850062376e-05
-1.70913608904e-09
4.32862151315e-05
-2.8418277376e-09
4.3288111415e-05
-4.58522093066e-09
4.32910444722e-05
-7.29343735335e-09
4.32955773243e-05
-1.1529077762e-08
4.33025961229e-05
-1.81781232597e-08
4.3313497297e-05
-2.86675364608e-08
4.33304648612e-05
-4.53303952311e-08
4.3356855124e-05
-7.20273072048e-08
4.33983180475e-05
-1.15215069835e-07
4.34638454074e-05
-1.86086945884e-07
4.35674049792e-05
-3.04585365677e-07
4.37293662418e-05
-5.06799183832e-07
4.39749986668e-05
-8.58022396092e-07
4.43219410438e-05
-1.47065322841e-06
4.47325166093e-05
-2.52191475053e-06
4.4965552414e-05
-4.2644030744e-06
-6.71267469846e-06
4.44476217431e-05
5.27351380459e-05
6.17347523128e-06
5.57309345463e-05
1.28850789219e-05
5.73114743816e-05
1.46955957253e-05
5.76109918208e-05
1.37529729176e-05
5.71335225228e-05
1.16346831764e-05
5.63194678343e-05
9.265066392e-06
5.54489874517e-05
7.09364848229e-06
5.46629766789e-05
5.28287662753e-06
5.40136809635e-05
3.85198611775e-06
5.35061496177e-05
2.75992844069e-06
5.31242539413e-05
1.94680846423e-06
5.2844985021e-05
1.35287660227e-06
5.26454399121e-05
9.26017020632e-07
5.25057174538e-05
6.23719793307e-07
5.24097252614e-05
4.12665822284e-07
5.23450227617e-05
2.67434393929e-07
5.2302289525e-05
1.69019684927e-07
5.22747081609e-05
1.03447181298e-07
5.22573907515e-05
6.05929597878e-08
5.22468905809e-05
3.32217516922e-08
5.22408007219e-05
1.62358712835e-08
5.22375051436e-05
6.11943942149e-09
5.22360181975e-05
4.42566108044e-10
5.22355259859e-05
-2.50391712636e-09
5.22356075969e-05
-3.77289730799e-09
5.22359707327e-05
-4.07459650522e-09
5.2236443436e-05
-3.85782579461e-09
5.22369287337e-05
-3.39688500988e-09
5.22373751983e-05
-2.85239588348e-09
5.22377596848e-05
-2.3143449701e-09
5.22380751876e-05
-1.82776753827e-09
5.22383239271e-05
-1.41086953331e-09
5.22385153209e-05
-1.06666284707e-09
5.22386608635e-05
-7.91190023474e-10
5.2238771079e-05
-5.73046245112e-10
5.22388582449e-05
-4.02928728851e-10
5.22389355276e-05
-2.74432131217e-10
5.22389838459e-05
-1.80754285358e-10
5.22390196692e-05
-1.14768436531e-10
5.22390410795e-05
-5.7888178657e-11
5.22390495606e-05
-1.3160081148e-11
5.22390490168e-05
2.01712439369e-11
5.22390417048e-05
4.5714366559e-11
5.22390292932e-05
6.55657728813e-11
5.22390128911e-05
8.20091066001e-11
5.22389932804e-05
9.63607422485e-11
5.22389712066e-05
1.09260985863e-10
5.22389480699e-05
1.20522938321e-10
5.22389209644e-05
1.34784480047e-10
5.22388917735e-05
1.47289319898e-10
5.22388612554e-05
1.59013605414e-10
5.22388303405e-05
1.69369748869e-10
5.22388004378e-05
1.7704953923e-10
5.2238773694e-05
1.79858316415e-10
5.22387537064e-05
1.73897281569e-10
5.22387483306e-05
1.50924528283e-10
5.22387706675e-05
9.91761145912e-11
5.22388275127e-05
1.36723726361e-11
5.22389361188e-05
-1.33370595128e-10
5.22391031684e-05
-3.55568478279e-10
5.22394103608e-05
-7.43382999428e-10
5.22398956952e-05
-1.44372553923e-09
5.22406264629e-05
-2.43977716977e-09
5.22417365542e-05
-3.95169603752e-09
5.22434293504e-05
-6.27769442632e-09
5.22460074779e-05
-9.87117887405e-09
5.22499249594e-05
-1.54461839713e-08
5.22558773214e-05
-2.41301938967e-08
5.2264933005e-05
-3.77230626022e-08
5.22787284839e-05
-5.91258586827e-08
5.22997572044e-05
-9.30561277672e-08
5.23317933991e-05
-1.47251410985e-07
5.23802823457e-05
-2.34575977416e-07
5.24523187969e-05
-3.76621767155e-07
5.25550265619e-05
-6.09506757927e-07
5.26893029997e-05
-9.92298530627e-07
5.28332577368e-05
-1.61460758607e-06
5.29052991155e-05
-2.59395606859e-06
5.26912613735e-05
-4.05036571594e-06
-5.90199786594e-06
5.18805852175e-05
5.19834865159e-05
4.18998871323e-06
5.50586640961e-05
9.80990132486e-06
5.7638613367e-05
1.21156463896e-05
5.93259032965e-05
1.20656828655e-05
6.0228015241e-05
1.07325710285e-05
6.05929262776e-05
8.90015509054e-06
6.06482829819e-05
7.03829144196e-06
6.05531882815e-05
5.37797096192e-06
6.04029534837e-05
4.00222055465e-06
6.0247912821e-05
2.91496877567e-06
6.01107872599e-05
2.08393375962e-06
5.99990278818e-05
1.4646357916e-06
5.99125130696e-05
1.01253171843e-06
5.98479217907e-05
6.88311015644e-07
5.98010191108e-05
4.59568475253e-07
5.97677356391e-05
3.00717831758e-07
5.97445957728e-05
1.92159472702e-07
5.97288190544e-05
1.19223749989e-07
5.97182731167e-05
7.11386721055e-08
5.97113695789e-05
4.01250120571e-08
5.97069534592e-05
2.06517114659e-08
5.97042237352e-05
8.8489469319e-09
5.97026188222e-05
2.04738934424e-09
5.97017197174e-05
-1.60473139965e-09
5.97012674263e-05
-3.32034396872e-09
5.97010844229e-05
-3.89117628581e-09
5.97010550999e-05
-3.82799022049e-09
5.97011065829e-05
-3.44783759533e-09
5.97011948827e-05
-2.94022735917e-09
5.97012941573e-05
-2.41327632009e-09
5.97013902975e-05
-1.92371757721e-09
5.97014765369e-05
-1.49706062627e-09
5.97015509798e-05
-1.14115618842e-09
5.97016145811e-05
-8.54880308144e-10
5.97016682625e-05
-6.26799267232e-10
5.97017120209e-05
-4.4670757314e-10
5.97017440034e-05
-3.06379724469e-10
5.97017640893e-05
-2.00774877933e-10
5.97017691891e-05
-1.1981293627e-10
5.97017605196e-05
-4.92132609744e-11
5.97017528055e-05
-5.50687044787e-12
5.97017432388e-05
2.96256202147e-11
5.97017314976e-05
5.73287773613e-11
5.97017191726e-05
7.77924657392e-11
5.97017045111e-05
9.66388275244e-11
5.97016871155e-05
1.13802154735e-10
5.9701666757e-05
1.29720062107e-10
5.97016426383e-05
1.44747954381e-10
5.97016184967e-05
1.58994510975e-10
5.9701593478e-05
1.72318605408e-10
5.97015683287e-05
1.84120880353e-10
5.97015443616e-05
1.93263121837e-10
5.97015233855e-05
1.97952741818e-10
5.97015075819e-05
1.95619585077e-10
5.9701498561e-05
1.82919068078e-10
5.97014931592e-05
1.56365442096e-10
5.97014843946e-05
1.08000233768e-10
5.970149311e-05
5.01750774643e-12
5.9701528024e-05
-1.68239498743e-10
5.97016883359e-05
-5.1584328044e-10
5.9701961243e-05
-1.01623429346e-09
5.97023151725e-05
-1.79754910736e-09
5.97028495179e-05
-2.97394451303e-09
5.97036481797e-05
-4.75009716144e-09
5.97048234928e-05
-7.4526786631e-09
5.97065390178e-05
-1.15863511929e-08
5.97090315937e-05
-1.79384512508e-08
5.97126438004e-05
-2.77422037154e-08
5.97178657434e-05
-4.29449516352e-08
5.97253826047e-05
-6.6642801473e-08
5.97361086145e-05
-1.03782315301e-07
5.97511207397e-05
-1.6226370616e-07
5.97712843148e-05
-2.54739602322e-07
5.97960486835e-05
-4.01386009639e-07
5.98202941541e-05
-6.33751999609e-07
5.98271159692e-05
-9.99120067639e-07
5.97741964553e-05
-1.56168772934e-06
5.95726606725e-05
-2.3924200787e-06
5.90622064719e-05
-3.53991176107e-06
-4.91703595679e-06
5.80772449044e-05
5.14373054222e-05
2.7526832923e-06
5.4265820716e-05
6.98138601196e-06
5.7249643442e-05
9.1318235978e-06
5.97900278132e-05
9.5252983696e-06
6.17201282558e-05
8.80247037675e-06
6.30883031059e-05
7.53197996799e-06
6.40167165078e-05
6.10987769805e-06
6.46292361167e-05
4.76545098489e-06
6.50258028707e-05
3.60565344191e-06
6.52790772286e-05
2.66169409543e-06
6.54389720386e-05
1.92403868935e-06
6.55386885775e-05
1.36491906641e-06
6.55999267115e-05
9.5129346878e-07
6.56367409241e-05
6.51496742575e-07
6.565819111e-05
4.38118257714e-07
6.56700979785e-05
2.88810925086e-07
6.56761852903e-05
1.86072079519e-07
6.56788189847e-05
1.16589905758e-07
6.56794860469e-05
7.04713887879e-08
6.56791056647e-05
4.05051273342e-08
6.56782332978e-05
2.15238165776e-08
6.56771966944e-05
9.88535752671e-09
6.56761810683e-05
3.06295020196e-09
6.56752659429e-05
-6.89507572873e-10
6.56744901178e-05
-2.54425371999e-09
6.56738544961e-05
-3.25515342246e-09
6.56733483041e-05
-3.32131818275e-09
6.56729541249e-05
-3.05317163623e-09
6.56726530357e-05
-2.6387154671e-09
6.56724269662e-05
-2.18690113206e-09
6.56722599111e-05
-1.75649470286e-09
6.56721383423e-05
-1.37544565239e-09
6.56720507562e-05
-1.05359961914e-09
6.56719864094e-05
-7.90582734469e-10
6.56719389726e-05
-5.79385223546e-10
6.56719042939e-05
-4.12005344406e-10
6.56718777719e-05
-2.79797847006e-10
6.56718542048e-05
-1.7714392313e-10
6.56718342834e-05
-9.98646475563e-11
6.56718282926e-05
-4.32620853491e-11
6.56718267938e-05
-4.11833185352e-12
6.56718194972e-05
3.67690818885e-11
6.56718091487e-05
6.75255527917e-11
6.56717955435e-05
9.12935385296e-11
6.56717802748e-05
1.11882577276e-10
6.56717634382e-05
1.30693389501e-10
6.56717448048e-05
1.4845242032e-10
6.56717242145e-05
1.65431613145e-10
6.56717029567e-05
1.80300081146e-10
6.56716815709e-05
1.93691033353e-10
6.56716592264e-05
2.06396967999e-10
6.56716365427e-05
2.15849618215e-10
6.56716145313e-05
2.19878017293e-10
6.56715947064e-05
2.15399371044e-10
6.56715796398e-05
1.97989286849e-10
6.56715746603e-05
1.61385924082e-10
6.56715836865e-05
9.90398218452e-11
6.56715893674e-05
-5.83609914047e-13
6.56716511518e-05
-2.29936171237e-10
6.56717250565e-05
-5.89657544675e-10
6.56718462842e-05
-1.13735410075e-09
6.56720210721e-05
-1.9721840603e-09
6.56722625722e-05
-3.21522612642e-09
6.56725852596e-05
-5.07250187178e-09
6.56729970856e-05
-7.86419261392e-09
6.56734920307e-05
-1.20810026739e-08
6.56740352196e-05
-1.84814195763e-08
6.56745323508e-05
-2.82392345033e-08
6.5674771333e-05
-4.31839766158e-08
6.56743110832e-05
-6.61827244141e-08
6.56722700761e-05
-1.01741526119e-07
6.56668740502e-05
-1.5686781698e-07
6.5654531326e-05
-2.4239683982e-07
6.5628016456e-05
-3.74870933835e-07
6.55729926118e-05
-5.78727868775e-07
6.54618542174e-05
-8.87981390692e-07
6.52446764641e-05
-1.34450972613e-06
6.48399063811e-05
-1.98764976713e-06
6.41322479659e-05
-2.832253472e-06
-3.81146445557e-06
6.30266766501e-05
5.10850424183e-05
1.66764087201e-06
5.3611844724e-05
4.45458368634e-06
5.66873167445e-05
6.05635151265e-06
5.96894468291e-05
6.52316815995e-06
6.22997274588e-05
6.19218953578e-06
6.44136890061e-05
5.41801814711e-06
6.6047185078e-05
4.47638128681e-06
6.72686165144e-05
3.54401918729e-06
6.81598953926e-05
2.71437421407e-06
6.87977617485e-05
2.02382742709e-06
6.92467457314e-05
1.47505445322e-06
6.95579639093e-05
1.05370070481e-06
6.97704295087e-05
7.38827752478e-07
6.99131708752e-05
5.08755311929e-07
7.00073794302e-05
3.43909666798e-07
7.00682853154e-05
2.27904998245e-07
7.01066822581e-05
1.47675054278e-07
7.01301178015e-05
9.31542152925e-08
7.01437982821e-05
5.67906968499e-08
7.01512637181e-05
3.30394442522e-08
7.01548834574e-05
1.79038456473e-08
7.01562164383e-05
8.55221965098e-09
7.01562706395e-05
3.00871627461e-09
7.01556630623e-05
-8.18131097789e-11
7.0154781571e-05
-1.6624994023e-09
7.0153837368e-05
-2.31057387635e-09
7.01529475495e-05
-2.4310621068e-09
7.01521661394e-05
-2.2713274982e-09
7.01515107373e-05
-1.9829448824e-09
7.01509788712e-05
-1.65477414746e-09
7.01505580264e-05
-1.33550636227e-09
7.01502316603e-05
-1.0490291606e-09
7.01499825444e-05
-8.04479127378e-10
7.01497945697e-05
-6.02599863669e-10
7.01496546156e-05
-4.39389037713e-10
7.01495519714e-05
-3.09284113656e-10
7.01494788644e-05
-2.06603553564e-10
7.01494288689e-05
-1.2708902305e-10
7.0149394852e-05
-6.58529364175e-11
7.01493640728e-05
-1.25713968945e-11
7.0149335103e-05
2.46891726129e-11
7.01493177876e-05
5.38866902606e-11
7.01493052553e-05
7.98802631613e-11
7.01492939835e-05
1.02453851931e-10
7.01492829448e-05
1.22899866973e-10
7.01492715928e-05
1.42101289635e-10
7.01492596445e-05
1.60489822549e-10
7.01492470078e-05
1.78143321148e-10
7.01492324433e-05
1.94891069308e-10
7.01492157918e-05
2.10306678765e-10
7.01491985218e-05
2.23576926967e-10
7.01491811946e-05
2.33063259212e-10
7.01491645373e-05
2.36436695364e-10
7.0149149314e-05
2.30567445937e-10
7.01491357928e-05
2.11509441393e-10
7.01491224858e-05
1.74737612807e-10
7.01491051303e-05
1.16471702472e-10
7.01490958587e-05
8.79048098288e-12
7.01490804928e-05
-2.14445850323e-10
7.01490828027e-05
-5.91827791489e-10
7.01490822382e-05
-1.13663329856e-09
7.01490543464e-05
-1.94410060002e-09
7.0148969306e-05
-3.12994189821e-09
7.01487709442e-05
-4.8738582599e-09
7.01483557798e-05
-7.44874883654e-09
7.01475429811e-05
-1.12679707254e-08
7.01460234236e-05
-1.69617236883e-08
7.01432687143e-05
-2.54845212471e-08
7.01383810273e-05
-3.82964365724e-08
7.01298474069e-05
-5.7649361977e-08
7.01151481144e-05
-8.70425053386e-08
7.00900282692e-05
-1.31748114592e-07
7.00472600206e-05
-1.99628515902e-07
6.99746488427e-05
-3.02259507285e-07
6.98518523496e-05
-4.55931075497e-07
6.96457787542e-05
-6.81907482162e-07
6.93054038901e-05
-1.00413471051e-06
6.87593088886e-05
-1.44155465537e-06
6.79218992476e-05
-1.99484393258e-06
-2.62020619502e-06
6.67306411049e-05
5.08804132593e-05
7.87227609128e-07
5.31704663744e-05
2.16453055464e-06
5.62177500606e-05
3.0090677653e-06
5.94382701725e-05
3.30264792424e-06
6.24449700476e-05
3.18548945078e-06
6.50382534835e-05
2.82473444071e-06
6.71548670073e-05
2.35976743063e-06
6.88135653902e-05
1.88532045203e-06
7.00731711782e-05
1.45476808494e-06
7.10056677531e-05
1.09133054683e-06
7.16812633658e-05
7.99458591722e-07
7.21614215787e-05
5.73542309415e-07
7.24966006636e-05
4.03648549618e-07
7.27264743822e-05
2.78881527298e-07
7.2881269103e-05
1.89114907832e-07
7.29834529588e-05
1.25721098664e-07
7.30493887305e-05
8.17391998489e-08
7.30907803566e-05
5.17624473352e-08
7.31158610562e-05
3.17098001423e-08
7.31303293754e-05
1.85709039496e-08
7.31380648827e-05
1.01681429197e-08
7.31416632549e-05
4.95372950159e-09
7.31428272559e-05
1.84471291454e-09
7.31426497874e-05
9.57841037592e-11
7.31417981067e-05
-8.10567851874e-10
7.31406838816e-05
-1.19600666078e-09
7.31395365401e-05
-1.28333480294e-09
7.31384761531e-05
-1.21056645705e-09
7.31375558533e-05
-1.0623341804e-09
7.31367901191e-05
-8.8882319279e-10
7.31361722736e-05
-7.17536573271e-10
7.31356854949e-05
-5.62185546298e-10
7.31353093702e-05
-4.28302637568e-10
7.31350235343e-05
-3.16688783793e-10
7.31348097247e-05
-2.25470479187e-10
7.31346523461e-05
-1.51780006243e-10
7.31345383763e-05
-9.25278674576e-11
7.31344560616e-05
-4.47299092293e-11
7.31343924102e-05
-2.24856251708e-12
7.31343533864e-05
2.63091146684e-11
7.3134325844e-05
5.20175752007e-11
7.31343049666e-05
7.45253632611e-11
7.31342896485e-05
9.49954163482e-11
7.31342779279e-05
1.14055384627e-10
7.3134268307e-05
1.32499997092e-10
7.31342596625e-05
1.50798912286e-10
7.3134251136e-05
1.69094325804e-10
7.31342420845e-05
1.87249196799e-10
7.31342321341e-05
2.04841421547e-10
7.31342211082e-05
2.21269482631e-10
7.31342089695e-05
2.3560504213e-10
7.31341957249e-05
2.46180525324e-10
7.31341813994e-05
2.5065173964e-10
7.31341660172e-05
2.45882898168e-10
7.31341496994e-05
2.27817201143e-10
7.31341329129e-05
1.91574139867e-10
7.31341169381e-05
1.32543547951e-10
7.31340878823e-05
3.79797763443e-11
7.31340384495e-05
-1.64851964038e-10
7.31339586093e-05
-5.11805673066e-10
7.31338258693e-05
-1.00369158719e-09
7.31335968985e-05
-1.7149060044e-09
7.31332008306e-05
-2.73362850994e-09
7.31325191077e-05
-4.19187886052e-09
7.3131352594e-05
-6.28199541888e-09
7.31293728367e-05
-9.2880434579e-09
7.31260452182e-05
-1.36340442789e-08
7.31204888636e-05
-1.99282415312e-08
7.31112568853e-05
-2.90646644967e-08
7.30960016269e-05
-4.23943906435e-08
7.30709717234e-05
-6.20128533578e-08
7.30301197549e-05
-9.08962438553e-08
7.29637316493e-05
-1.33240297011e-07
7.28564744584e-05
-1.95002040948e-07
7.26846624544e-05
-2.84118770953e-07
7.24129486599e-05
-4.10193407368e-07
7.19916131967e-05
-5.82799195853e-07
7.13573408557e-05
-8.07282336327e-07
7.04414329512e-05
-1.07893614004e-06
-1.37372147281e-06
6.91949483245e-05
5.07871726765e-05
5.49299270176e-11
5.29516500783e-05
5.31399595123e-11
5.59606888431e-05
2.89401711014e-11
5.92633224268e-05
1.42157269333e-11
6.24488090487e-05
2.61902069439e-12
6.52735495833e-05
-6.3631015521e-12
6.76333290205e-05
-1.23346737567e-11
6.95186644082e-05
-1.52838847998e-11
7.09734478225e-05
-1.5668259072e-11
7.20647921682e-05
-1.41027397801e-11
7.28642617442e-05
-1.12324448849e-11
7.34378115924e-05
-7.72113778259e-12
7.38414642595e-05
-4.23566350643e-12
7.4120347153e-05
-1.43301427121e-12
7.43094619059e-05
1.14494543247e-13
7.44351829931e-05
-3.56998623375e-14
7.45169242271e-05
-2.11885124438e-12
7.45686924438e-05
-5.90687420559e-12
7.46004128158e-05
-1.07533367518e-11
7.46189991995e-05
-1.56722206409e-11
7.46291867155e-05
-1.9530733678e-11
7.46341616001e-05
-2.12357974759e-11
7.46360267025e-05
-2.0366326093e-11
7.46361407688e-05
-1.8148181899e-11
7.46353461296e-05
-1.56955818916e-11
7.46341630677e-05
-1.26406804823e-11
7.46328893019e-05
-9.23549492955e-12
7.46316845471e-05
-5.49649884581e-12
7.4630623544e-05
-1.0753112447e-12
7.46297318275e-05
3.07205251072e-12
7.46290069091e-05
7.49710297135e-12
7.46284324112e-05
1.24021826247e-11
7.46279864792e-05
1.77339079391e-11
7.46276463862e-05
2.35440748918e-11
7.46273910847e-05
2.99973769453e-11
7.46272022424e-05
3.72231853124e-11
7.46270645138e-05
4.53121074045e-11
7.46269655201e-05
5.4284649304e-11
7.46268989529e-05
6.42271180165e-11
7.46268509156e-05
7.41503879414e-11
7.46268180049e-05
8.46652442221e-11
7.46267959456e-05
9.63115322482e-11
7.46267815021e-05
1.09216550144e-10
7.46267721197e-05
1.23311135558e-10
7.46267659492e-05
1.38645136888e-10
7.46267616328e-05
1.55158141271e-10
7.46267581557e-05
1.72631373822e-10
7.46267547485e-05
1.9068627747e-10
7.46267508068e-05
2.08754218946e-10
7.46267459071e-05
2.26076747596e-10
7.46267398006e-05
2.41577348588e-10
7.46267322143e-05
2.53623989486e-10
7.46267227474e-05
2.59998984711e-10
7.46267107499e-05
2.57807236442e-10
7.46266951491e-05
2.43407817409e-10
7.46266743018e-05
2.1248332674e-10
7.46266466165e-05
1.60355042449e-10
7.4626601869e-05
8.28944726851e-11
7.46265113805e-05
-7.41690428248e-11
7.46263690841e-05
-3.69296473892e-10
7.4626135709e-05
-7.70091291377e-10
7.46257511685e-05
-1.33013581356e-09
7.46251167373e-05
-2.09897228145e-09
7.46240718662e-05
-3.14679187924e-09
7.46223540009e-05
-4.56394889342e-09
7.46195413169e-05
-6.47525290198e-09
7.46149638851e-05
-9.05662024951e-09
7.46075282039e-05
-1.24927036805e-08
7.45954539488e-05
-1.69906633075e-08
7.457588969e-05
-2.28304196483e-08
7.45444173744e-05
-3.05407452573e-08
7.44940785383e-05
-4.0557445932e-08
7.44139191499e-05
-5.30807505632e-08
7.42871857345e-05
-6.82683180605e-08
7.4088916849e-05
-8.58495776261e-08
7.37833625895e-05
-1.04638903247e-07
7.33224013373e-05
-1.21837971932e-07
7.26473531428e-05
-1.32234268097e-07
7.16970186832e-05
-1.28601822054e-07
-1.02338723126e-07
7.04256359949e-05
5.07871716526e-05