/*--------------------------------*- C++ -*----------------------------------*\
| =========                 |                                                 |
| \\      /  F ield         | OpenFOAM: The Open Source CFD Toolbox           |
|  \\    /   O peration     | Version:  2106                                  |
|   \\  /    A nd           | Website:  www.openfoam.com                      |
|    \\/     M anipulation  |                                                 |
\*---------------------------------------------------------------------------*/
FoamFile
{
    version     2.0;
    format      ascii;
    arch        "LSB;label=32;scalar=64";
    class       volScalarField;
    location    "0.39";
    object      p;
}
// * * * * * * * * * * * * * * * * * * * * * * * * * * * * * * * * * * * * * //

dimensions      [0 2 -2 0 0 0 0];

internalField   nonuniform List<scalar> 
9600
(
2.26589171873
-0.6321187246
-1.53635024176
-1.92196012754
-2.14129190262
-2.28123465809
-2.38513996447
-2.4726895172
-2.55218858977
-2.62757844276
-2.70095198559
-2.77346050456
-2.84573362511
-2.91810195606
-2.99072238847
-3.06365039696
-3.13688607515
-3.21040109453
-3.28415517016
-3.35810550505
-3.43221143768
-3.50643855855
-3.58075623833
-3.65514020284
-3.72957119834
-3.80403414799
-3.87851752845
-3.95301247056
-4.02751212098
-4.10201111914
-4.17650538081
-4.25099179406
-4.32546769859
-4.39993071919
-4.47437880406
-4.54880999398
-4.62322220871
-4.69761337197
-4.771981481
-4.8463244344
-4.92064001105
-4.99492593478
-5.06917976358
-5.14339866719
-5.21757954103
-5.29171906769
-5.36581375226
-5.43985978716
-5.51385296558
-5.58778873427
-5.66166228307
-5.73546851143
-5.80920213093
-5.88285741091
-5.95642806292
-6.02990752748
-6.10328894973
-6.17656478493
-6.24972668822
-6.32276568138
-6.39567235301
-6.4684367918
-6.5410484613
-6.61349623605
-6.6857684462
-6.75785263799
-6.82973535559
-6.90140213899
-6.97283764424
-7.04402577336
-7.11494968895
-7.18559162744
-7.25593267964
-7.32595276922
-7.3956307644
-7.46494443688
-7.53387030874
-7.60238358799
-7.67045825598
-7.73806702545
-7.8051812226
-7.87177075918
-7.93780413787
-8.00324839719
-8.06806893154
-8.13222943805
-8.19569203686
-8.25841725133
-8.3203638291
-8.38148863566
-8.4417468339
-8.50109194309
-8.55947560205
-8.61684751349
-8.67315550568
-8.72834543995
-8.78236105232
-8.8351440531
-8.88663422343
-8.9367695009
-8.98548597759
-9.03271762048
-9.07839637736
-9.12245205275
-9.16481236324
-9.20540341015
-9.244149726
-9.28097351335
-9.31579454874
-9.34853105738
-9.37909987906
-9.40741601528
-9.43339307207
-9.45694309244
-9.47797595883
-9.49639984854
-9.51212204215
-9.52504905239
-9.53508564053
-9.54213518052
-9.5461007934
-9.54688475106
-9.54438842998
-9.53851236267
-9.52915607247
-9.5162196987
-9.49960110146
-9.47919893622
-9.45491218992
-9.42663814109
-9.39427399993
-9.357716571
-9.31686249225
-9.27160825555
-9.22184866543
-9.16747730558
-9.10838689678
-9.044467334
-8.97560508769
-8.90168253031
-8.82257700779
-8.73815871266
-8.64828727661
-8.55281059796
-8.45155998161
-8.344344724
-8.23094623241
-8.11110714288
-7.9845203171
-7.85080911514
-7.70949903662
-7.55997499637
-7.4014061392
-7.23262021124
-7.0518904592
-6.85661984723
-6.64285512296
-6.40477176241
-6.14300537678
-5.91799961754
0.354350929086
-0.828003563231
-1.43667831383
-1.79070196089
-2.03331884479
-2.20388198206
-2.33195385495
-2.43645648967
-2.5275317762
-2.61080992017
-2.68958250001
-2.76579942929
-2.84062012264
-2.91473231975
-2.98853841644
-3.06226479961
-3.1360311572
-3.20989328898
-3.28386996984
-3.3579595248
-3.43215031565
-3.50642587663
-3.58076943378
-3.65516554314
-3.72960063138
-3.80406320185
-3.87854390395
-3.95303526811
-4.02753134771
-4.1020272142
-4.17651878622
-4.25100295321
-4.32547720469
-4.39993910748
-4.47438638848
-4.54881705254
-4.6232290443
-4.69762024468
-4.7719886137
-4.84633202043
-4.92064819569
-4.99493483792
-5.06918948161
-5.14340924595
-5.21759102226
-5.29173151824
-5.36582726264
-5.43987433298
-5.51386856884
-5.58780551213
-5.66168041401
-5.73548815252
-5.8092233158
-5.88288020303
-5.95645265495
-6.02993412648
-6.10331768703
-6.17659576869
-6.24976005213
-6.32280157616
-6.39571089731
-6.46847812109
-6.54109277387
-6.61354375322
-6.68581939712
-6.75790724649
-6.82979377822
-6.90146449495
-6.9729041616
-7.04409680587
-7.11502556818
-7.18567260403
-7.25601899738
-7.32604473671
-7.39572870475
-7.46504862908
-7.53398104186
-7.60250121956
-7.67058317042
-7.73819958831
-7.80532178813
-7.87191968756
-7.93796181344
-8.00341526283
-8.06824544617
-8.13241598475
-8.19588897257
-8.25862502547
-8.32058298714
-8.38171969748
-8.44199019757
-8.50134798686
-8.55974486432
-8.61713066146
-8.67345308634
-8.72865783431
-8.78268864858
-8.83548731209
-8.88699371816
-8.93714595996
-8.98588009619
-9.03312986854
-9.07882697229
-9.12290150794
-9.16528151148
-9.20589291448
-9.24465996559
-9.28150495739
-9.31634762845
-9.34910608979
-9.37969729221
-9.40803613659
-9.4340362203
-9.45760966666
-9.47866642691
-9.49711463541
-9.51286134087
-9.52581289583
-9.53587455777
-9.54294994179
-9.54694184178
-9.54775261933
-9.54528375152
-9.53943562633
-9.53010745879
-9.51719792171
-9.50060695576
-9.48023328357
-9.45597604908
-9.42773370812
-9.39540416224
-9.35888469836
-9.31807258494
-9.27286560861
-9.223160244
-9.16885180478
-9.10983492533
-9.04600198052
-8.97724338076
-8.90344605494
-8.82449189311
-8.7402577332
-8.65061181297
-8.55541265704
-8.45450584724
-8.34771863167
-8.23485603006
-8.1156926715
-7.98996605576
-7.85736289911
-7.71750068147
-7.56990798099
-7.41399293402
-7.24900621843
-7.07401027387
-6.88792700052
-6.68973562804
-6.4782629585
-6.25340758647
-6.03609674844
-0.621491439236
-1.10285882375
-1.49411837557
-1.7857338557
-2.00730775029
-2.1752435964
-2.30734536388
-2.4171339357
-2.51299226414
-2.60013666343
-2.6818786291
-2.76031296873
-2.83676017457
-2.91204953284
-2.98669745753
-3.06101911414
-3.13520150831
-3.20935080263
-3.28352310663
-3.35774401356
-3.43202127363
-3.50635277147
-3.58073161042
-3.65514923989
-3.72959688231
-3.80406633324
-3.87855039872
-3.95304299924
-4.0275391468
-4.10203458139
-4.17652552817
-4.25100898145
-4.32548256433
-4.39994395227
-4.47439083277
-4.54882114048
-4.62323286761
-4.69762395569
-4.77199232818
-4.84633588503
-4.92065235796
-4.99493935381
-5.06919432986
-5.143414422
-5.21759651937
-5.29173735429
-5.36583338286
-5.43988081232
-5.5138754771
-5.58781291001
-5.66168844373
-5.73549694347
-5.80923283361
-5.88289038984
-5.95646364019
-6.02994610228
-6.10333073102
-6.17660986464
-6.24977520734
-6.32281788335
-6.39572843484
-6.46849692427
-6.54111291785
-6.61356537185
-6.6858425976
-6.7579320603
-6.82982019268
-6.90149252105
-6.97293395431
-7.04412864176
-7.11505967638
-7.18570907245
-7.25605786237
-7.32608611189
-7.39577276702
-7.46509553016
-7.53403090876
-7.60255419533
-7.67063941093
-7.73825925765
-7.80538505852
-7.8719867399
-7.93803282223
-8.00349037883
-8.06832483551
-8.13249984376
-8.19597746361
-8.25871825377
-8.32068113107
-8.38182309037
-8.44209915593
-8.50146268903
-8.55986546593
-8.61725736932
-8.67358609145
-8.72879728754
-8.78283468184
-8.83564008047
-8.88715349992
-8.93731311618
-8.98605479517
-9.0333122735
-9.07901709141
-9.12309938448
-9.16548752224
-9.20610746013
-9.2448830479
-9.28173649843
-9.31658783718
-9.34935533844
-9.37995607961
-9.40830530029
-9.43431609707
-9.45790020567
-9.47896781778
-9.49742765776
-9.51318664502
-9.5261507195
-9.53622543304
-9.54331459545
-9.54732099556
-9.54814716244
-9.54569442434
-9.53986338354
-9.53055386448
-9.51766591169
-9.50109913109
-9.48075203833
-9.45652355827
-9.42831270533
-9.3960181797
-9.35953838803
-9.31877125966
-9.27361513322
-9.22396838922
-9.16972836195
-9.11079138669
-9.04705244323
-8.97840562539
-8.90474235979
-8.82594964156
-8.74191095918
-8.6525030995
-8.55759513234
-8.45704672235
-8.35070286541
-8.23839197379
-8.11992034287
-7.99506784591
-7.86358100875
-7.72516210592
-7.57946347049
-7.4260822658
-7.26456366257
-7.09443083331
-6.91529535693
-6.72712755634
-6.53036459191
-6.32598643173
-6.12218248625
-1.17295220939
-1.35929715245
-1.60174533066
-1.82421289713
-2.01140378398
-2.16543162666
-2.29386888856
-2.40415936713
-2.50195363949
-2.59131346579
-2.67508444704
-2.75521108001
-2.83300091835
-2.90932289361
-2.98474752482
-3.05964334545
-3.1342439224
-3.20869370781
-3.28307914794
-3.35744928335
-3.43182947009
-3.506230885
-3.58065689331
-3.65510523982
-3.72957251202
-3.80405421589
-3.878545762
-3.95304276715
-4.02754126354
-4.10203777726
-4.17652916355
-4.25101268692
-4.32548606801
-4.39994715992
-4.47439375401
-4.54882378085
-4.62323531377
-4.69762632305
-4.77199471865
-4.84633839748
-4.92065515016
-4.99494249811
-5.06919779587
-5.14341813286
-5.21760041225
-5.29174133566
-5.36583739317
-5.43988484823
-5.51387962469
-5.58781731643
-5.66169320992
-5.73550214162
-5.80923848096
-5.88289649527
-5.95647028427
-6.0299534124
-6.10333876537
-6.17661857306
-6.24978456404
-6.32282794268
-6.39573929098
-6.46850864271
-6.54112556494
-6.61357900328
-6.68585715773
-6.75794740436
-6.82983625874
-6.90150946158
-6.97295198186
-7.04414793584
-7.11508037278
-7.18573122578
-7.25608148714
-7.32611124293
-7.39579948261
-7.46512394285
-7.53406113622
-7.60258634899
-7.67067358851
-7.73829553306
-7.80542350904
-7.87202749261
-7.93807599862
-8.00353599739
-8.06837290329
-8.13255049759
-8.1960308975
-8.25877456962
-8.32074037482
-8.38188540983
-8.44216482219
-8.50153197115
-8.55993849776
-8.61733416479
-8.67366668405
-8.72888175702
-8.78292317426
-8.83573288306
-8.88725094243
-8.937415292
-8.98616203397
-9.03342487967
-9.07913535391
-9.12322344052
-9.16561757267
-9.20624381836
-9.24502583562
-9.28188571594
-9.31674381426
-9.34951839749
-9.3801263061
-9.40848284102
-9.43450113453
-9.45809262689
-9.47916758229
-9.49763510487
-9.51340244693
-9.52637551042
-9.53645959202
-9.54355860333
-9.54757558596
-9.54841294496
-9.54597206059
-9.54015374187
-9.5308581985
-9.51798532495
-9.50143536918
-9.48110750512
-9.45690105361
-9.42871521618
-9.39644959655
-9.36000409568
-9.31927755814
-9.2741693163
-9.22457957996
-9.17040772468
-9.11155266653
-9.0479125862
-8.97938502142
-8.90586613702
-8.8272488033
-8.74342356754
-8.65427664891
-8.55968859203
-8.45953351809
-8.35367510067
-8.24196628377
-8.12424583164
-8.00033572051
-7.87004026575
-7.7331411567
-7.58940008713
-7.43856744688
-7.28040028871
-7.11470351105
-6.94141389852
-6.76075816422
-6.57331432375
-6.37990058903
-6.18359796779
-1.51029768937
-1.56205957199
-1.70595526506
-1.8702482971
-2.02458124434
-2.16263909031
-2.28479255869
-2.39358076442
-2.49202458936
-2.58285452259
-2.66826204407
-2.74990004147
-2.82897013079
-2.90632398793
-2.98255333006
-3.05806179628
-3.13311998446
-3.20790611728
-3.28253516145
-3.35707932523
-3.43158218514
-3.50606891743
-3.58055321691
-3.65504064774
-3.72953370676
-3.80403211533
-3.87853431152
-3.95303797397
-4.02754040351
-4.10203905634
-4.17653158117
-4.25101566348
-4.32548917425
-4.39995012977
-4.47439648233
-4.54882627628
-4.62323766465
-4.6976286687
-4.77199715791
-4.84634099265
-4.92065798027
-4.9949456316
-5.06920120058
-5.14342175029
-5.21760417775
-5.29174520169
-5.36584138776
-5.43988907625
-5.51388425431
-5.58782243855
-5.66169879687
-5.73550815986
-5.80924499406
-5.88290358502
-5.95647801583
-6.029961838
-6.10334790562
-6.17662842457
-6.24979512611
-6.32283926309
-6.39575146332
-6.46852174009
-6.54113963196
-6.61359408787
-6.68587325261
-6.75796446492
-6.82985431645
-6.90152865038
-6.97297248154
-7.04416986578
-7.11510381126
-7.18575627538
-7.25610826491
-7.32613983621
-7.39582994998
-7.46515635046
-7.53409558104
-7.60262296388
-7.67071250322
-7.73833683813
-7.80546729125
-7.87207388352
-7.93812513925
-8.00358795796
-8.06842772277
-8.13260829242
-8.19609185556
-8.25883884843
-8.32080804681
-8.38195657891
-8.44223969883
-8.50161075847
-8.56002132106
-8.6174211055
-8.67375780756
-8.72897708775
-8.78302279404
-8.83583705055
-8.88735993329
-8.9375291955
-8.98628064726
-9.03354821535
-9.07926373246
-9.12335704446
-9.16575639732
-9.20638789136
-9.2451752211
-9.28204047623
-9.31690420222
-9.34968470451
-9.3802987272
-9.40866161204
-9.43468652728
-9.45828491994
-9.47936687516
-9.49784147501
-9.51361648285
-9.52659791655
-9.53669083997
-9.54379939422
-9.54782660796
-9.54867485392
-9.54624564653
-9.54044013761
-9.53115891691
-9.51830198003
-9.50176975599
-9.48146227738
-9.45727931238
-9.42912060165
-9.39688640864
-9.36047756714
-9.31979445619
-9.27473796069
-9.22520977002
-9.17111132595
-9.11234450154
-9.04881092448
-8.98041191691
-8.90704871252
-8.82862033877
-8.74502456562
-8.6561574231
-8.56191125266
-8.46217465588
-8.35683018375
-8.2457547989
-8.12881858135
-8.00588307709
-7.876804203
-7.74143198433
-7.59961636489
-7.45122084396
-7.29614277228
-7.13434710868
-6.96591412042
-6.79110037935
-6.61030519537
-6.42384868167
-6.23240129881
-1.71437198074
-1.70939236406
-1.79336807622
-1.91415725348
-2.04080016118
-2.16347997217
-2.27837653696
-2.38457249815
-2.48285534297
-2.5746443746
-2.66140516854
-2.74442031608
-2.82472452282
-2.90311131699
-2.98016858436
-3.05632079263
-3.13186815264
-3.20701907813
-3.28191567314
-3.35665310057
-3.43129360478
-3.505876898
-3.58042763023
-3.65496090162
-3.72948446285
-3.80400297156
-3.87851814722
-3.95303002201
-4.02753748526
-4.10203905546
-4.17653319821
-4.25101814342
-4.32549200729
-4.39995295497
-4.47439913551
-4.54882873222
-4.62323996374
-4.69763092198
-4.77199947009
-4.84634342504
-4.92066058067
-4.99494843874
-5.06920419399
-5.14342482775
-5.21760724581
-5.29174827781
-5.36584455038
-5.43989241012
-5.51388783698
-5.58782630522
-5.66170288197
-5.73551244766
-5.80924965175
-5.88290882195
-5.956483901
-6.02996831244
-6.10335488542
-6.17663588917
-6.24980308936
-6.32284778584
-6.39576065619
-6.46853170669
-6.54115040136
-6.61360560468
-6.68588542698
-6.75797723972
-6.82986775807
-6.90154295515
-6.97298784027
-7.0441863585
-7.11512143935
-7.18577507549
-7.25612830481
-7.32616115412
-7.39585257291
-7.46518036023
-7.53412112314
-7.6026501903
-7.67074151027
-7.73836765889
-7.80549993393
-7.8721083795
-7.93816157348
-8.0036264247
-8.06846827179
-8.13265097066
-8.19613679726
-8.25888626487
-8.32085808428
-8.3820093006
-8.44229522335
-8.50166927102
-8.56008295524
-8.6174858952
-8.67382580229
-8.72904844093
-8.7830977282
-8.83591581739
-8.88744272423
-8.93761616146
-8.98637177026
-9.03364356128
-9.07936365482
-9.12346187861
-9.16586613996
-9.20650251586
-9.24529489078
-9.28216538832
-9.3170345289
-9.34982075829
-9.38044073244
-9.4088095602
-9.43484051992
-9.45844532375
-9.47953399969
-9.49801556335
-9.51379807997
-9.5267875978
-9.53688910786
-9.54400687886
-9.54804403845
-9.54890315943
-9.54648581961
-9.54069331302
-9.53142661606
-9.51858604529
-9.50207228125
-9.48178583294
-9.45762730709
-9.42949735444
-9.39729651648
-9.36092635738
-9.32028903784
-9.27528706311
-9.22582369363
-9.1718025943
-9.11312835155
-9.04970595533
-8.98144068093
-8.90823868424
-8.83000517644
-8.74664515479
-8.6580639466
-8.56416515303
-8.46485117259
-8.36002219844
-8.24957682916
-8.13341310672
-8.01142695159
-7.88351654093
-7.74958552483
-7.60954860179
-7.46334490694
-7.31095443276
-7.15241980003
-6.98786678222
-6.81751288668
-6.64159780259
-6.46016957731
-6.27310044763
-1.83750080531
-1.81204368257
-1.86140322477
-1.95156294993
-2.0564875778
-2.16580989989
-2.27364649973
-2.37686986912
-2.47454348543
-2.56693383699
-2.65480516813
-2.7390491181
-2.82050448823
-2.89988246504
-2.97775013833
-3.05454180122
-3.13058058643
-3.20610127812
-3.28127104364
-3.35620700198
-3.43098968285
-3.50567330892
-3.58029384906
-3.65487495363
-3.72943069921
-3.80397066791
-3.87849980092
-3.95302051936
-4.02753347102
-4.1020383218
-4.1765343065
-4.25102021476
-4.32549448531
-4.39995549258
-4.47440160353
-4.54883109296
-4.6232421946
-4.69763302893
-4.77200154237
-4.84634554548
-4.9206627818
-4.99495075092
-5.06920660629
-5.14342726522
-5.2176096619
-5.29175072241
-5.36584714486
-5.43989526573
-5.51389100821
-5.58782978194
-5.6617066354
-5.73551649368
-5.80925407759
-5.88291373303
-5.95648934876
-6.0299742212
-6.10336113229
-6.17664245581
-6.24981005023
-6.32285523316
-6.39576868273
-6.46854038506
-6.5411597352
-6.61361554907
-6.68589596344
-6.75798841551
-6.82987967947
-6.90155574895
-6.97300160149
-7.0442011209
-7.1151372032
-7.18579185692
-7.25614613611
-7.32618006695
-7.39587262045
-7.46520165793
-7.53414382224
-7.60267439838
-7.67076726274
-7.7383949711
-7.80552883215
-7.87213889424
-7.93819378781
-8.00366048833
-8.06850430969
-8.13268903355
-8.19617692128
-8.25892852705
-8.32090256865
-8.38205607807
-8.4423443806
-8.50172090637
-8.5601371533
-8.61754268094
-8.67388522274
-8.7291106554
-8.78316293663
-8.83598410528
-8.88751409322
-8.93769068957
-8.98644953348
-9.03372459228
-9.07944812473
-9.12355007053
-9.1659580777
-9.20659816604
-9.24539446193
-9.28226899703
-9.31714226803
-9.34993301236
-9.38055784758
-9.40893162327
-9.43496758527
-9.45857757153
-9.47967181563
-9.49815942003
-9.51394850263
-9.52694513659
-9.53705426693
-9.54418020941
-9.54822637526
-9.54909536752
-9.54668902839
-9.54090867808
-9.53165564383
-9.51883082279
-9.50233502834
-9.48206917073
-9.45793465311
-9.42983295784
-9.39766528223
-9.36133409277
-9.3207429361
-9.27579575188
-9.22639755584
-9.17245425048
-9.11387304412
-9.05056232396
-8.98243114061
-8.90939005713
-8.8313502896
-8.74822383224
-8.65992444794
-8.56636623539
-8.46746424683
-8.36313438236
-8.25329394342
-8.13786447393
-8.0167704155
-7.889943398
-7.75732717137
-7.61888193437
-7.47459565459
-7.32449504516
-7.16865844583
-7.00722118767
-6.84036491497
-6.66826060857
-6.49092491003
-6.30819757567
-1.91154249417
-1.88049227989
-1.91042285226
-1.98019548601
-2.06936351272
-2.16824028455
-2.27011926614
-2.37059123945
-2.46751762123
-2.5602637829
-2.64900084361
-2.73426724415
-2.81671233084
-2.89696000938
-2.97554874581
-3.0529151284
-3.12939883585
-3.20525616498
-3.28067574026
-3.35579388393
-3.43070736704
-3.50548358396
-3.58016877448
-3.65479444371
-3.72938003871
-3.80394003694
-3.87848227507
-3.95301130579
-4.02752942416
-4.10203740593
-4.17653516435
-4.25102196848
-4.32549658771
-4.39995766161
-4.47440374763
-4.54883320747
-4.62324421636
-4.69763490086
-4.77200330574
-4.84634729395
-4.92066454651
-4.99495249753
-5.06920831611
-5.14342898426
-5.21761144813
-5.29175264516
-5.36584928898
-5.43989766994
-5.51389363214
-5.58783260073
-5.66170966314
-5.73551976821
-5.8092576835
-5.88291775094
-5.95649376596
-6.02997892612
-6.10336600016
-6.17664748058
-6.24981534912
-6.32286092285
-6.39577483214
-6.46854702089
-6.54116684351
-6.61362312989
-6.68590408647
-6.75799719247
-6.82988918411
-6.9015659965
-6.97301258879
-7.04421284871
-7.11514965986
-7.18580501667
-7.25615998688
-7.32619463508
-7.39588799541
-7.46521799576
-7.53416127511
-7.60269302868
-7.67078705482
-7.738415921
-7.80555098188
-7.87216228898
-7.9382184875
-8.00368662522
-8.06853204865
-8.1327184652
-8.19620801342
-8.25896122486
-8.32093690003
-8.38209211202
-8.44238217932
-8.50176055689
-8.56017879337
-8.61758643926
-8.67393117098
-8.72915892516
-8.78321367596
-8.83603733857
-8.88756974223
-8.93774880409
-8.98651031011
-9.0337881169
-9.07951445728
-9.12361932637
-9.166030346
-9.20667346076
-9.24547290841
-9.28235070157
-9.31722729503
-9.35002155882
-9.38065017469
-9.40902797344
-9.43506807454
-9.45868234598
-9.47978133367
-9.49827411143
-9.51406862549
-9.52707121297
-9.53718687733
-9.54432013765
-9.54837438619
-9.54925232005
-9.54685594492
-9.5410867653
-9.53184640682
-9.51903627855
-9.50255768206
-9.48231193308
-9.45820073919
-9.43012630516
-9.39799092574
-9.36169801461
-9.32115231944
-9.27625925769
-9.22692550977
-9.1730589669
-9.11456939657
-9.05136852723
-8.98336904314
-8.91048556754
-8.83263490742
-8.74973559924
-8.66170899033
-8.5684786777
-8.46997101399
-8.36611582992
-8.25684647598
-8.14210369869
-8.02183530608
-7.89599923486
-7.76456929742
-7.627538674
-7.48492889869
-7.33679648631
-7.18324227522
-7.0244119821
-6.86048277036
-6.69163449764
-6.51797875948
-6.33957097954
-1.95377502438
-1.92221091867
-1.94185581083
-1.99930212261
-2.07831522373
-2.17009382423
-2.2677113773
-2.36609864335
-2.46237997653
-2.55531368545
-2.64464604851
-2.73065001081
-2.81382585405
-2.89472491147
-2.97385897281
-3.05166297889
-3.12848710296
-3.20460287572
-3.28021476664
-3.35547347359
-3.43048804242
-3.50533591263
-3.58007105385
-3.65473035579
-3.72934030672
-3.80391610459
-3.8784685977
-3.95300414425
-4.02752628547
-4.10203668529
-4.17653581484
-4.25102331503
-4.3254982354
-4.3999593824
-4.47440545136
-4.54883486995
-4.62324579984
-4.69763633428
-4.77200460164
-4.8463485527
-4.92066580563
-4.99495369194
-5.06920941471
-5.14343007227
-5.21761267036
-5.2917541115
-5.36585103702
-5.43989965235
-5.51389577009
-5.58783485522
-5.66171206552
-5.73552239078
-5.80926059251
-5.88292095056
-5.95649717836
-6.02998245823
-6.10336961177
-6.17665120047
-6.24981925602
-6.32286507844
-6.39577926268
-6.46855176639
-6.54117196828
-6.6136287038
-6.68591019521
-6.75800392206
-6.82989655978
-6.90157395671
-6.97302106499
-7.04422182536
-7.11515913163
-7.1858149437
-7.25617033121
-7.32620543847
-7.3958993945
-7.46523013442
-7.53417421052
-7.60270674479
-7.67080154359
-7.73843123113
-7.80556721191
-7.8721795309
-7.9382368031
-8.00370609242
-8.06855277025
-8.13274048976
-8.19623127436
-8.25898563117
-8.32096243393
-8.38211878167
-8.44241001298
-8.50178962623
-8.56020922718
-8.61761836505
-8.67396471621
-8.72919420304
-8.78325074743
-8.83607614876
-8.88761024042
-8.93779100109
-8.98655437862
-9.03383424023
-9.07956267007
-9.12366965142
-9.16608285993
-9.20672820057
-9.24552989978
-9.28241011103
-9.31728929974
-9.35008624381
-9.38071763882
-9.40909838846
-9.43514162107
-9.45875930138
-9.47986222702
-9.49835928521
-9.51415826045
-9.52716570083
-9.53728687028
-9.54442634003
-9.54848768312
-9.54937352809
-9.54698613232
-9.54122726964
-9.53199869996
-9.51920223636
-9.50273978653
-9.48251314178
-9.45842433852
-9.43037630468
-9.39827231069
-9.36201663735
-9.32151521759
-9.27667502215
-9.22740437283
-9.17361306894
-9.11521320778
-9.05211953403
-8.98424829596
-8.91151807567
-8.83385079211
-8.75117106616
-8.66340719021
-8.57049120979
-8.47235941893
-8.36895401176
-8.26022242698
-8.1461214152
-8.02661822574
-7.90169225427
-7.77134111103
-7.63558396914
-7.49446914443
-7.34807829445
-7.19653492013
-7.04000785608
-6.87870188417
-6.71285095582
-6.54270090264
-6.36854612145
-1.97302299651
-1.94192683437
-1.95715047118
-2.00881876864
-2.08287613499
-2.17107736665
-2.26648148727
-2.36374989332
-2.45966165702
-2.55267227617
-2.64230746648
-2.72869805402
-2.81226245481
-2.89351086667
-2.97293914401
-3.0509803096
-3.12798943853
-3.20424585553
-3.27996252984
-3.35529793731
-3.43036771486
-3.50525474058
-3.58001738566
-3.65469602488
-3.72931866227
-3.80390310502
-3.87846129285
-3.95300045325
-4.02752478779
-4.10203646078
-4.17653627672
-4.25102412646
-4.32549924503
-4.39996048638
-4.47440654575
-4.54883590181
-4.62324674669
-4.69763717007
-4.77200531298
-4.84634918774
-4.92066642881
-4.99495431698
-5.0692100348
-5.1434307479
-5.21761351474
-5.29175519811
-5.36585236954
-5.43990117815
-5.51389739393
-5.58783650906
-5.66171375811
-5.73552419511
-5.80926258847
-5.88292312814
-5.95649943382
-6.02998473138
-6.10337193414
-6.17665364065
-6.24982185227
-6.32286780635
-6.39578208081
-6.46855472716
-6.54117521354
-6.61363235673
-6.68591430617
-6.75800850014
-6.82990159369
-6.90157938926
-6.97302680098
-7.0442278009
-7.1151653361
-7.18582138179
-7.25617702103
-7.32621245906
-7.39590686465
-7.46523811625
-7.53418266516
-7.60271560814
-7.67081079765
-7.73844092084
-7.80557745733
-7.87219048248
-7.93824855576
-8.00371868154
-8.06856620535
-8.1327547339
-8.19624624081
-8.2590012541
-8.32097868687
-8.38213566481
-8.44242759923
-8.50180800589
-8.5602284733
-8.61763857179
-8.67398598029
-8.72921653416
-8.78327410776
-8.83610053119
-8.8876356474
-8.93781741425
-8.98658192985
-9.03386307836
-9.07959274093
-9.12370093891
-9.16611556848
-9.20676239825
-9.24556554808
-9.28244733772
-9.31732822749
-9.35012689557
-9.38076005618
-9.40914272381
-9.43518816031
-9.45880838073
-9.47991423476
-9.49841453213
-9.51421698249
-9.52722828749
-9.53735391491
-9.54449852758
-9.54856582147
-9.54945853608
-9.54707901219
-9.54132939856
-9.53211177602
-9.51932816346
-9.50288082318
-9.48267212014
-9.45860457819
-9.43058179382
-9.39850804061
-9.36228856607
-9.32183033632
-9.27704165323
-9.22783247568
-9.17411464385
-9.11580246526
-9.05281342245
-8.98506728466
-8.91248649212
-8.83499755069
-8.75253078758
-8.66502112715
-8.5724083558
-8.47463770941
-8.3716623823
-8.26344250648
-8.14994888034
-8.03116571195
-7.90709135589
-7.77774403671
-7.64316578422
-7.50342983471
-7.35864388821
-7.20895866896
-7.05457627423
-6.89574908014
-6.73278351937
-6.56605133585
-6.39603225721
-1.97302252115
-1.94192666158
-1.95715015011
-2.00881852599
-2.08287608246
-2.17107725022
-2.26648151807
-2.36375005621
-2.45966183091
-2.5526725035
-2.64230776849
-2.72869838966
-2.81226277073
-2.89351110005
-2.97293929536
-3.05098046294
-3.12798957196
-3.20424586507
-3.27996238032
-3.35529766569
-3.43036735402
-3.50525432097
-3.58001701691
-3.65469588523
-3.72931882221
-3.80390348152
-3.87846177385
-3.95300095708
-4.02752525694
-4.1020368788
-4.17653660653
-4.25102437434
-4.32549947568
-4.39996076757
-4.47440683425
-4.54883612202
-4.62324691353
-4.69763733702
-4.77200547622
-4.84634931536
-4.92066652918
-4.99495444975
-5.06921024472
-5.14343109024
-5.21761404083
-5.29175592243
-5.36585327284
-5.43990220097
-5.51389841938
-5.58783744028
-5.66171460682
-5.73552504935
-5.80926352688
-5.88292416901
-5.95650052306
-6.02998583276
-6.10337308626
-6.17665489024
-6.24982319133
-6.32286915521
-6.39578337599
-6.46855602916
-6.54117668221
-6.61363412482
-6.68591639346
-6.7580108474
-6.8299041501
-6.90158212064
-6.97302965055
-7.0442306998
-7.11516826899
-7.18582438658
-7.2561801608
-7.32621579375
-7.39591042372
-7.46524186831
-7.53418654733
-7.60271957198
-7.6708148329
-7.73844506731
-7.80558181645
-7.87219519468
-7.93825372696
-8.00372432017
-8.06857222802
-8.13276105446
-8.19625283237
-8.25900808798
-8.32098570167
-8.38214283871
-8.44243496594
-8.50181566768
-8.56023652097
-8.61764711665
-8.67399498342
-8.72922583534
-8.78328366207
-8.83611039811
-8.88764587777
-8.93782798864
-8.9865928995
-9.03387451552
-9.07960460795
-9.12371323446
-9.1661284555
-9.20677600236
-9.2455798753
-9.28246244386
-9.31734413141
-9.35014355404
-9.38077745483
-9.40916100936
-9.43520774157
-9.45882965345
-9.47993737807
-9.49843983932
-9.51424464162
-9.52725874725
-9.53738774792
-9.54453640674
-9.54860854255
-9.54950700516
-9.54713435141
-9.54139299666
-9.53218526151
-9.51941340628
-9.50298014457
-9.48278842238
-9.45874116664
-9.43074244422
-9.39869765416
-9.36251317305
-9.32209699342
-9.2773586234
-9.22820959561
-9.17456382556
-9.11633778287
-9.05345155037
-8.98582839071
-8.91339460152
-8.83608102658
-8.7538233313
-8.66656278625
-8.5742466476
-8.47682857983
-8.37427182678
-8.26654870971
-8.15364319344
-8.03555484666
-7.91229976335
-7.78391605105
-7.65046758263
-7.51205261005
-7.36880737401
-7.22091422696
-7.06861278261
-6.9122078151
-6.75207653004
-6.58868899006
-6.42264394422
-1.95377371787
-1.92221049573
-1.94185500055
-1.99930144014
-2.07831507589
-2.17009352697
-2.26771144663
-2.36609907744
-2.46238051228
-2.55531438298
-2.64464692341
-2.73065089633
-2.8138266637
-2.89472552539
-2.97385939148
-3.05166337526
-3.12848743722
-3.20460288964
-3.28021436109
-3.35547272995
-3.43048705619
-3.50533479901
-3.58007011417
-3.65473003117
-3.72934078038
-3.80391717408
-3.87846995269
-3.95300552786
-4.02752756238
-4.1020378332
-4.17653677168
-4.25102405752
-4.32549892366
-4.39996016621
-4.47440625826
-4.54883554091
-4.62324633324
-4.69763684042
-4.77200510925
-4.84634902622
-4.92066627239
-4.99495425199
-5.06921015645
-5.14343111429
-5.21761417475
-5.29175617438
-5.36585362554
-5.43990259348
-5.5138987406
-5.5878375974
-5.66171460944
-5.73552498265
-5.80926346009
-5.88292412033
-5.95650049828
-6.02998585283
-6.10337318187
-6.17665502786
-6.2498232711
-6.32286909672
-6.39578317664
-6.46855574984
-6.54117642442
-6.61363397443
-6.68591635578
-6.75801085158
-6.82990412799
-6.9015820542
-6.9730295316
-7.04423051136
-7.11516801407
-7.18582410201
-7.25617988721
-7.3262155226
-7.39591008435
-7.46524138714
-7.53418587012
-7.60271865412
-7.670813676
-7.7384437418
-7.80558041612
-7.87219379761
-7.9382523706
-8.00372295097
-8.06857072082
-8.13275934214
-8.19625092811
-8.25900598274
-8.32098337597
-8.38214030156
-8.44243224917
-8.50181282538
-8.560233598
-8.61764404539
-8.6739916352
-8.72922207885
-8.78327946216
-8.83610584116
-8.88764102494
-8.93782274875
-8.98658714381
-9.03386834731
-9.07959817691
-9.12370660774
-9.16612168455
-9.20676917605
-9.24557297164
-9.2824553334
-9.31733675067
-9.35013596973
-9.38076978872
-9.40915339628
-9.43520050953
-9.4588230184
-9.47993150587
-9.49843495649
-9.51424109576
-9.52725688958
-9.53738823084
-9.54453983012
-9.54861555864
-9.54951861499
-9.54715193519
-9.54141798784
-9.53221912168
-9.51945788039
-9.50303748457
-9.48286150465
-9.45883343248
-9.43085784362
-9.39884101431
-9.36269039852
-9.32231513099
-9.27762598026
-9.22853602141
-9.17496133997
-9.11682066114
-9.05403652011
-8.98653548692
-8.91424781897
-8.83710884178
-8.75505934831
-8.66804674303
-8.57602573098
-8.47895839136
-8.3768176213
-8.26958761033
-8.15726554366
-8.03986594594
-7.91742223299
-7.78999232256
-7.65766219099
-7.52055472788
-7.37883541963
-7.23272046711
-7.08248706786
-6.92848664121
-6.77115266999
-6.61102076377
-6.44875251369
-1.91154059293
-1.88049177823
-1.91042187066
-1.98019444994
-2.06936328746
-2.16823996281
-2.27011933441
-2.37059175914
-2.4675183999
-2.56026485961
-2.6490021308
-2.73426851265
-2.81671345229
-2.8969608885
-2.97554938137
-3.0529156484
-3.12939920282
-3.2052561462
-3.28067523108
-3.35579290745
-3.43070604668
-3.50548217896
-3.58016770993
-3.65479422001
-3.72938085087
-3.80394165023
-3.87848427197
-3.95301329826
-4.02753124302
-4.10203907094
-4.17653663369
-4.25102316491
-4.32549764242