/*--------------------------------*- C++ -*----------------------------------*\
| =========                 |                                                 |
| \\      /  F ield         | OpenFOAM: The Open Source CFD Toolbox           |
|  \\    /   O peration     | Version:  2106                                  |
|   \\  /    A nd           | Website:  www.openfoam.com                      |
|    \\/     M anipulation  |                                                 |
\*---------------------------------------------------------------------------*/
FoamFile
{
    version     2.0;
    format      ascii;
    arch        "LSB;label=32;scalar=64";
    class       volScalarField;
    location    "0.1";
    object      p;
}
// * * * * * * * * * * * * * * * * * * * * * * * * * * * * * * * * * * * * * //

dimensions      [0 2 -2 0 0 0 0];

internalField   nonuniform List<scalar> 
11200
(
142.998974396
140.070372667
138.956522194
138.429191534
138.061862529
137.767084998
137.505442322
137.256905509
137.012389555
136.767324959
136.519014545
136.265703408
136.006159222
135.739446106
135.464796987
135.181538301
134.889043974
134.586707493
134.273929798
133.950124907
133.614664929
133.266901798
132.90617829
132.531825045
132.143156967
131.739473152
131.320057544
130.884179883
130.431096502
129.960050909
129.470274284
128.960985938
128.431393603
127.880693666
127.308071439
126.712702118
126.093751721
125.450376939
124.781725311
124.086935698
123.365138554
122.615456138
121.837002743
121.028884777
120.190200641
119.32004047
118.417485725
117.481608528
116.511470576
115.506121504
114.464596654
113.385914175
112.26907137
111.113040058
109.916760583
108.679134015
107.399012079
106.075184442
104.706362949
103.291161817
101.828072657
100.315432923
98.7513856522
97.1338302597
95.4603570038
93.7281609527
91.933931491
90.0737083761
88.1426874785
86.1349543757
84.0431211418
81.8578320444
79.5668869549
77.1541091223
74.597431303
71.8652333197
68.9099856886
65.6592958297
61.9603145258
57.1994442346
141.205932427
139.847758453
139.056787412
138.556773662
138.165786063
137.841904227
137.557383981
137.292783057
137.037297189
136.784778076
136.531398314
136.274644057
136.012777956
135.744523314
135.468879616
135.185012046
134.892183199
134.589710179
134.276934153
133.953192159
133.617838003
133.270177036
132.909588596
132.53539765
132.146907294
131.74341071
131.324188863
130.8885096
130.435627977
129.964786585
129.475215777
128.966133745
128.436746326
127.886249565
127.313832272
126.71867124
126.099932396
125.456772287
124.788338397
124.09376961
123.372196486
122.622741503
121.844519295
121.036636707
120.198192688
119.328278102
118.425975389
117.490357919
116.520488936
115.515419966
114.474188681
113.395816142
112.279303316
111.123626624
109.927732156
108.690528068
107.410874813
106.087572901
104.719347691
103.30483027
101.842533639
100.330822853
98.7678748898
97.1516276343
95.479713723
93.7493905657
91.9574427154
90.1000328987
88.1725217513
86.1692245275
84.0830719735
81.9051063129
79.6237832229
77.2239675909
74.6852675811
71.9791820933
69.0649164434
65.8846066212
62.3353941662
58.2217608352
140.21074221
139.556541971
139.004186678
138.566569466
138.194946252
137.872845165
137.58374615
137.313513538
137.053052505
136.796574234
136.540193614
136.28122869
136.017767163
135.74838191
135.471951818
135.187548236
134.894361358
134.591652198
134.278721878
133.954892386
133.619499431
133.271910778
132.911380987
132.53725248
132.148833321
131.745414259
131.3262742
130.890680049
130.437886558
129.967136449
129.477660643
128.968678696
128.439399611
127.889019934
127.316721321
126.721676957
126.103055415
125.46001407
124.791701345
124.09725711
123.375812887
122.626492175
121.848410762
121.040676803
120.202390797
119.33264551
118.430525719
117.495107661
116.525458096
115.520632826
114.479674743
113.401611335
112.285451489
111.130181389
109.934759061
108.698107192
107.419103962
106.096571624
104.729262399
103.315840529
101.854859408
100.344732802
98.7836976251
97.1697821943
95.500750294
93.774010156
91.9865193945
90.1346788959
88.2141741277
86.2197658999
84.1450036465
81.9818232252
79.7201281907
77.3469977783
74.8457033859
72.1943688679
69.3649836556
66.3258559122
63.0409082603
59.4868898865
139.660981086
139.297599925
138.897702271
138.528712214
138.191095806
137.882993574
137.597630524
137.326927169
137.064556273
136.805890868
136.547512785
136.286890269
136.022123312
135.751744567
135.474577952
135.189640892
134.896076861
134.593109318
134.280010783
133.956080911
133.620628975
133.272972204
132.912455557
132.538356607
132.149972524
131.746594226
131.327499315
130.891953208
130.439209496
129.96850992
129.479084382
128.970151028
128.440916751
127.890578376
127.318324471
126.723333874
126.104771969
125.461799086
124.793561579
124.09919932
123.37784448
122.628621512
121.85064756
121.043032613
120.204879525
119.335284009
118.433334476
117.498111524
116.528687165
115.524123613
114.483471615
113.405768255
112.290034173
111.135269946
109.940451188
108.704522168
107.426387885
106.104904062
104.738864071
103.326983069
101.867878669
100.360053519
98.8018489261
97.191407108
95.5266247525
93.8051019872
92.0240632836
90.1802565085
88.2698283528
86.2881683567
84.2297184985
82.0877471115
79.8540191102
77.5184864724
75.0690494612
72.4915907898
69.7713313785
66.898512762
63.8766794876
60.7429181313
139.326933211
139.095137892
138.793725797
138.482749009
138.177909654
137.885886344
137.606910941
137.337785333
137.074825996
136.814742768
136.55477511
136.292685458
136.026681197
135.755313239
135.477384889
135.191879088
134.89790297
134.594646989
134.281355521
133.957305686
133.62179238
133.274119839
132.913585833
132.539491487
132.151132449
131.747792469
131.328745209
130.893253951
130.440571012
129.96993744
129.480583076
128.971726626
128.44257598
127.892328268
127.320169821
126.725276896
126.106815786
125.463941709
124.79580634
124.101550157
123.380308182
122.631207478
121.853367801
121.045901996
120.20791611
119.338509629
118.436775468
117.501799621
116.532661237
115.528430961
114.488169787
113.410927356
112.295739729
111.141626345
109.947585836
108.712590476
107.435578837
106.115445845
104.751034536
103.341122229
101.884409238
100.379485292
98.8248114119
97.2186939093
95.5592394405
93.8443061522
92.0714463915
90.2378379909
88.3402011024
86.3747009215
84.336839658
82.2213507772
80.0221230974
77.7322330919
75.3442520295
72.8511584255
70.2487389503
67.5414197487
64.750559323
61.9268684022
139.123540771
138.947638866
138.706444415
138.439118967
138.161932272
137.885294224
137.613604849
137.347103712
137.0843393
136.823331493
136.56204529
136.298613564
136.031410833
135.759046285
135.480327001
135.194215139
134.899788382
134.596206983
134.282687897
133.958485089
133.622874949
133.275145778
132.914587572
132.540492664
132.152148506
131.748834469
131.329821281
130.894370115
130.441731812
129.971146379
129.481842665
128.973038527
128.443941087
127.893747087
127.321643083
126.726806095
126.108404412
125.46559804
124.797538718
124.10337168
123.382232125
122.633247742
121.855539603
121.0482231
120.210408006
119.341198511
118.439693303
117.504985653
116.536162481
115.532304478
114.49248491
113.415768341
112.301208999
111.147848392
109.954711991
108.720804996
107.445107372
106.126569944
104.764099334
103.356554161
101.902714453
100.401285997
98.8508859224
97.249999061
95.5969580409
93.8899128945
92.1267928228
90.3052642482
88.4226873181
86.4760761238
84.4620742556
82.3769692287
80.2167942267
77.9776070663
75.6561216101
73.2509856958
70.7652710116
68.2111493572
65.6156100191
63.0258293177
139.00042402
138.844816554
138.638515111
138.401953507
138.14647896
137.883200299
137.618588144
137.355080877
137.092949265
136.831365422
136.568995268
136.304362286
136.036036737
135.762710097
135.483210131
135.196489066
134.901601665
134.597681754
134.28392104
133.959551469
133.623831188
133.276034006
132.915440923
132.541334458
132.152995054
131.749697461
131.330709317
130.895289614
130.442687667
129.972142461
129.482882354
128.974125135
128.445078213
127.894938905
127.322895029
126.728125145
126.109798446
125.467075408
124.799108433
124.105040742
123.384007265
122.635140694
121.857567287
121.050406473
120.212772276
119.34377401
118.442516672
117.508101191
116.539624318
115.536178081
114.496849797
113.420721406
112.306868362
111.154358024
109.962247376
108.729579832
107.455380848
106.138652139
104.778372477
103.373477283
101.922867166
100.425383959
98.8797986903
97.2847987127
95.6389720981
93.9407897475
92.1885876098
90.3805521367
88.5147140175
86.5889592281
84.6010745771
82.5488545546
80.4303226271
78.2441503626
75.9904134658
73.6718819864
71.296128365
68.8787950901
66.4468273026
64.0396875685
138.926344394
138.77633447
138.589579315
138.373474646
138.133769536
137.880949528
137.622313973
137.361577661
137.100213127
136.838293933
136.575079207
136.309445556
136.040152518
135.765978856
135.485780943
135.198508692
134.903200273
134.598968029
134.284982193
133.960455518
133.624630065
133.276766601
132.916136066
132.542013161
132.153672671
131.750385182
131.331415394
130.896020262
130.443447704
129.972935821
129.483712536
128.974995555
128.445992495
127.895901103
127.323909541
126.729196628
126.110932147
125.468277111
124.800384489
124.106401146
123.385469408
122.636721565
121.859285115
121.052283273
120.214834989
119.346055501
118.445056943
117.510948782
116.542838117
115.539830122
114.501027733
113.425531686
112.312440275
111.160848628
109.969847505
108.738521686
107.465948159
106.151193483
104.79330948
103.391331648
101.944266615
100.451094672
98.9107615711
97.3221705433
95.6841772671
93.9955866648
92.2551537733
90.4615932094
88.6136044033
86.7099235578
84.7494211571
82.7312683327
80.6552261011
78.5221161045
76.3345663149
74.0981338652
71.8228938951
69.5255134772
67.230758681
64.9707507004
138.884068119
138.734620681
138.558205671
138.354468388
138.124936996
137.879230265
137.624872284
137.366236223
137.105532021
136.84344063
136.57964617
136.313290839
136.043283162
135.768474461
135.487747837
135.200054816
134.904423017
134.599949603
134.285789063
133.961139806
133.625231714
133.277315593
132.916654588
132.542517599
132.154174924
131.750894145
131.331937709
130.896561009
130.444010931
129.973524957
129.484330746
128.975645985
128.446678529
127.89662657
127.324678852
126.73001493
126.111805598
125.46921355
124.801394352
124.107496661
123.386661504
122.638025998
121.860722004
121.053876924
120.21661473
119.348056865
118.447323072
117.513532088
116.545802235
115.543252038
114.505000903
113.430169745
112.317881413
111.167260872
109.977435085
108.747532715
107.476683686
106.164018034
104.808669864
103.409768729
101.966444196
100.477822622
98.9430282156
97.3611842101
95.7314176673
94.052868747
92.3247075594
90.5461633215
88.7165744372
86.8354690713
84.9026961045
82.9186254045
80.8844628598
78.8027121971
76.6778396219
74.5171724709
72.3320102186
70.1388378591
67.9597949884
65.8211761517
138.864791826
138.714914232
138.542951871
138.345017381
138.120457407
137.878340083
137.626207062
137.368700568
137.108376113
136.846217812
136.582130439
136.315398328
136.04501193
135.769863701
135.48885278
135.200932664
134.905125958
134.600522027
134.28626706
133.961551801
133.625599563
133.27765577
132.916979395
132.542836228
132.154494113
131.751219129
131.33227256
130.896909015
130.444374904
129.973907498
129.484734495
128.97607376
128.447133561
127.897112688
127.325200624
126.730577832
126.112416242
125.469879896
124.802125566
124.108303431
123.387558627
122.639030671
121.861854713
121.055162504
120.218083375
119.349745286
118.44927587
117.515803406
116.548457794
115.546371669
114.508681591
113.43452929
112.323062869
111.173437888
109.984818456
108.756378527
107.487303512
106.176791915
104.824055341
103.428325197
101.988852878
100.504909652
98.975799089
97.4008635546
95.7794975825
94.111167701
92.3954418021
90.6320333881
88.8208691589
86.9621850787
85.0566794675
83.105723608
81.1116777274
79.0783066875
77.0113388778
74.9191555701
72.8135353241
70.7103113946
68.6292734868
66.5924645602
138.864794601
138.714930479
138.54297902
138.345053711
138.12050216
137.87839244
137.626266104
137.368765464
137.108446164
136.846292454
136.582209235
136.315480952
136.045098131
135.769953279
135.488945569
135.201028554
134.905224923
134.600624143
134.286372497
133.961660786
133.625712351
133.277772633
132.917100677
132.542962398
132.154625795
131.751357114
131.332417824
130.897062718
130.44453841
129.974082408
129.484922655
128.976277589
128.447356079
127.897357593
127.325472362
126.730881706
126.112758596
125.470268424
124.802569825
124.108815392
123.388152351
122.639723233
121.862666863
121.056119427
120.219215664
119.35109015
118.450878536
117.51771877
116.550752458
115.549126461
114.511994648
113.438519778
112.327875432
111.179248021
109.991839088
108.764868048
107.497575395
106.189226453
104.839112946
103.446566515
102.010957048
100.531701142
99.0082758779
97.4402353697
95.8272288255
94.169027593
92.4655654299
90.7169949352
88.9237631042
87.0867322157
85.2074103191
83.2879298056
81.3314934152
79.342753579
77.3282452361
75.2969042237
73.2605704898
71.2343398278
69.2362141109
67.2853981369
138.884076469
138.734669764
138.558287695
138.354578106
138.125072108
137.87938811
137.625050071
137.366431475
137.105742645
136.843664936
136.579882856
136.313538929
136.043541907
135.768743261
135.488026213
135.20034246
134.90471987
134.600255902
134.286105305
133.961466657
133.62556993
133.277665972
132.917018152
132.542895742
132.154569473
131.751307448
131.332372651
130.897020994
130.444499941
129.974047721
129.484893006
128.97625491
128.447343034
127.897357588
127.325489594
126.730921298
126.112826826
125.470373002
124.802720178
124.109022974
123.388431031
122.640089872
121.863141915
121.056727717
120.219987395
119.35206209
118.452095358
117.519234663
116.552633142
115.551451673
114.51486117
113.442045078
112.332202006
111.184548647
109.998323254
108.772789768
107.507242662
106.201012571
104.853471638
103.464040837
102.03220532
100.557522487
99.0396382857
97.4783015258
95.8734022398
94.2250090703
92.5334104536
90.7991479329
89.0231327967
87.2067389774
85.351871569
83.4613915344
81.5392010428
79.590554955
77.6224685304
75.6441283219
73.667257005
71.7063328043
69.7781702488
67.9003273576
138.926358431
138.776417429
138.589717795
138.373659544
138.13399682
137.881214596
137.62261209
137.361904656
137.100565491
136.838668834
136.575474474
136.309859567
136.04058404
135.766426915
135.486244793
135.198987878
134.90369474
134.599478178
134.285508824
133.960999712
133.625193077
133.277349739
132.916740976
132.542642047
132.154328544
131.751071923
131.33213775
130.896783816
130.444258981
129.973802593
129.484644304
128.976004095
128.447092376
127.89711013
127.32524919
126.730692746
126.112616085
125.470187445
124.80256884
124.108916849
123.388383457
122.640117001
121.863263345
121.056967307
120.220374247
119.352631624
118.452890571
117.520307698
116.554047242
115.553283553
114.51720392
113.445011634
112.335929308
111.189202667
110.004105086
108.779942982
107.516062167
106.211855217
104.866770012
103.48031953
102.052094178
100.581780742
99.0691781495
97.5142287656
95.9170375714
94.2779082015
92.5973980572
90.876410729
89.1162458378
87.3187133909
85.4862633734
83.6221667696
81.7307300599
79.8175660817
77.8899093338
75.9569551891
74.0301828576
72.1236009477
70.2534322059
68.4367112176
139.00044404
138.844935443
138.638713043
138.402216931
138.146801796
137.883575804
137.619009516
137.355542199
137.093445586
136.83189276
136.569550579
136.30494331
136.036641784
135.763337872
135.483859678
135.197159829
134.902293602
134.598395389
134.284657402
133.960311972
133.624617543
133.276848028
132.916285066
132.542211449
132.153909125
131.750653929
131.331714656
130.896351449
130.443814918
129.973345787
129.484174832
128.97552299
128.446601506
127.896612143
127.324747535
126.730191791
126.112121293
125.469705605
124.802108336
124.10848795
123.387998638
122.639791353
121.863015183
121.05681897
120.220352985
119.352770581
118.453229975
117.520896343
116.554944305
115.554560837
114.518948573
113.447329344
112.33894815
111.193077781
110.009024327
108.78613368
107.523799161
106.22147042
104.878663752
103.494974571
102.070093485
100.603823309
99.0961018151
97.5470299942
95.9569073827
94.3262735581
92.6559564774
90.9471351249
89.2014215122
87.420961578
85.608554687
83.767802393
81.903284377
80.0207779185
78.1275185259
76.2325016712
74.3468297123
72.4841159056
70.6604459776
68.8933426971
139.123567394
138.947797331
138.70670694
138.439466656
138.162356525
137.885785844
137.614154827
137.347704347
137.084984207
136.824015549
136.562764586
136.299365233
136.032192788
135.759856987
135.481165352
135.195080513
134.900680701
134.597126751
134.283636112
133.959463127
133.623884448
133.276188504
132.915667983
132.541615598
132.15331845
131.750057585
131.33110536
130.895724435
130.443167296
129.972676122
129.483482846
128.974809353
128.445867704
127.895860424
127.323980944
126.729414262
126.111337747
125.468922083
124.801332211
124.107728223
123.387266348
122.639100068
121.862381584
121.056263485
120.21990049
119.352451255
118.453080382
117.520960768
116.55527643
115.555225803
114.520025445
113.44891396
112.341156546
111.196050367
110.012930984
108.791179921
107.53023346
106.229592779
104.888835823
103.507631624
102.085757905
100.623121894
99.1197851923
97.5759938015
95.9922133638
94.369172458
92.7079151863
91.0098637473
89.2768913916
87.5114104248
85.7164744637
83.895901686
82.0544124008
80.1977943431
78.3331058938
76.4689388172
74.6158102142
72.7868173016
70.9980381261
69.268231794
139.326967118
139.095340792
138.794059401
138.483187973
138.178442169
137.88650034
137.607595057
137.338530091
137.075623638
136.815587102
136.555661432
136.293610374
136.027642346
135.756309013
135.478414267
135.192941618
134.898998792
134.595776776
134.282520244
133.958506588
133.623031179
133.275397067
132.914908663
132.540866491
132.152564293
131.749287813
131.330312771
130.894904277
130.442316626
129.971793359
129.482567464
128.973861675
128.444888768
127.894851964
127.322945443
126.728355102
126.110259424
125.467830331
124.800234015
124.106631761
123.38618119
122.638037651
121.861355881
121.055291739
120.219003976
119.351656064
118.452418307
117.520470414
116.555004667
115.55522954
114.520373874
113.449691001
112.342463882
111.198011109
110.015694066
108.794925052
107.535176664
106.235994418
104.897009365
103.517953985
102.098681342
100.639187723
99.1396393995
97.600404308
96.022089044
94.4055824891
92.7521071854
91.0632794789
89.3411775311
87.5884183178
85.8082417146
84.0046035889
82.1822732606
80.3469412434
78.5053494021
76.665477626
74.8369279689
73.0318371457
71.2657237075
69.5584538592
139.661022311
139.297850966
138.898109512
138.529242885
138.191734183
137.883724227
137.598439641
137.32780356
137.065490906
136.806876588
136.548544195
136.287963553
136.023235967
135.752895123
135.475765806
135.190866331
134.897341217
134.594415041
134.281360966
133.957479813
133.622085719
133.274494099
132.914021447
132.53997486
132.15165449
131.748350291
131.329341014
130.893894032
130.441265339
129.970699596
129.481430599
128.972681748
128.443666361
127.893588041
127.321641327
126.727012623
126.108881235
125.466420145
124.7987968
124.105174189
123.384711956
122.636567103
121.859896639
121.053859083
120.217616251
119.350335288
118.451191015
117.519368785
116.554067957
115.554505204
114.519919362
113.449575708
112.342771696
111.198843347
110.017173038
108.797198897
107.538425572
106.240435245
104.902902655
103.525612411
102.10847939
100.651572677
99.1551434893
97.6196579599
96.0458352423
94.4346916966
92.7875917309
91.1063049773
89.3930684451
87.6506532958
85.8824334103
84.0924526988
82.2854821616
80.4670656961
78.6435554552
76.8221472817
75.0111065793
73.2207585237
71.4642624794
69.7601421156
140.210795574
139.556855348
139.004677634
138.567197232
138.195691433
137.873689083
137.584672808
137.314510289
137.054109226
136.797682879
136.541348024
136.282424377
136.019000995
135.749651748
135.473256239
135.188886523
134.895733987
134.59306193
134.280174229
133.956395366
133.621057142
133.273485695
132.913006696
132.538938287
132.150585032
131.74724015
131.32818488
130.892688485
130.440008351
129.969390376
129.480069112
128.971268591
128.442202694
127.892075596
127.320082457
126.725410143
126.107237567
125.464737785
124.797079276
124.103425489
123.382936598
122.634771808
121.858090071
121.052052123
120.215822418
119.348571185
118.4494769
117.517729278
116.552532725
115.553110823
114.518710192
113.448605802
112.342106498
111.19856203
110.01737115
108.797990974
107.539948912
106.242855469
104.906418932
103.530463667
102.114951595
100.660007215
99.1659466448
97.6333111499
96.0629059612
94.4558444168
92.8135976991
91.1380491092
89.4315517309
87.6969906002
85.9378375936
84.1582006584
82.3628491092
80.5572066474
78.7472817476
76.9394441956
75.140314354
73.3573698325
71.5976271374
69.8694362202
141.206033279
139.848217459
139.057471076
138.557629201
138.166790621
137.843037344
137.558628846
137.29412653
137.038728763
136.786289331
136.532982641
136.276296371
136.014494263
135.74630015
135.470713423
135.186898663
134.894117344
134.591684702
134.278943267
133.955243154
133.619920435
133.272338447
132.911834297
132.537726942
132.14932554
131.745926572
131.326813284
130.891255621
130.438509117
129.967822304
129.478430756
128.969558841
128.440420619
127.890220461
127.31815384
126.723408334
126.10516501
125.462598062
124.79487537
124.101161097
123.380616433
122.632401119
121.855675197
121.049600808
120.213344061
119.346077173
118.446981083
117.515248603
116.550088084
115.550727537
114.516418828
113.446443138
112.340116967
111.196799376
110.015900557
108.796891995
107.539317268
106.242805526
104.907087905
103.532016049
102.117584089
100.66395415
99.1714858384
97.6407703095
96.0726693907
94.4683600253
92.8293834369
91.1576964581
89.4557283673
87.7264517631
85.9734134852
84.2007812563
82.4133597087
80.6165671629
78.8163016682
77.0184280023
75.228469896
73.4511676685
71.6813728616
69.8888567819
142.999141843
140.071044196
138.95751661
138.430446638
138.063348298
137.768777095
137.50732236
137.258959908
137.014608176
136.769700416
136.521541863
136.26837985
136.008984196
135.742421088
135.46792546
135.184825702
134.89249767
134.590336254
134.277738221
133.954096503
133.618810577
133.271228181
132.910687622
132.536523998
132.1480548
131.744580894
131.325388266
130.889749622
130.436927683
129.966166462
129.476700846
128.967755389
128.438544258
127.888271916
127.31613392
126.721317705
126.103003489
125.460365317
124.792571977
124.098788036
123.378175157
122.629893767
121.853104647
121.046970714
120.21065896
119.343342664
118.444204082
117.512437647
116.547253678
115.547882472
114.513578741
113.443626967
112.337347615
111.194104488
110.01331337
108.794452114
107.537072446
106.240813493
104.905417965
103.530751271
102.116823801
100.663816868
99.172112625
97.6423286602
96.0753575192
94.4724113686
92.8350720999
91.1653491769
89.4657349152
87.7392373006
85.9894617408
84.2206459531
82.437681265
80.6460923153
78.8519449405
77.0617862044
75.282117841
73.5179568156
71.7495159833
69.8513887406
49.7907877754
46.2414687986
43.8535657275
41.9020925972
40.2376085512
38.7887371665
37.5103903018
36.371985688
35.3513095657
34.4314400857
33.5991109177
32.8436717104
32.1563777728
31.5298930756
30.9579430845
30.435075784
29.9564989951
29.5179687164
29.115708489
28.7463492022
28.4068796864
28.0946054332
27.8071120839
27.5422329716
27.2980203021
27.0727201976
26.8647504002
26.6726804733
26.4952146625
26.3311767766
26.1794966658
26.0391991489
25.9093940621
25.7892675505
25.6780745625
25.5751322547
25.4798141679
25.3915449562
25.3097960033
25.2340820304
25.1639611816
25.0990415233
25.038942103
24.9832802929
24.9317156315
24.8839363633
24.8396460196
24.7985778238
24.760489973
24.7251498666
24.6923450919
24.6618811532
24.6335709665
24.6072425948
24.5827408321
24.5599448746
24.5386998074
24.5188739606
24.5003495503
24.4830189222
24.4667831322
24.4515506311
24.4372362707
24.4237609557
24.4110517631
24.3990418757
24.3876700265
24.3768800435
24.3666203185
24.3568432615
24.347504935
24.3385651755
24.329987462
24.3217382534
24.313786506
24.3061040221
24.2986658457
24.2914498988
24.2844359309
24.2776049538
24.2709398221
24.2644257358
24.2580500186
24.2518013135
24.2456690196
24.2396432109
24.2337155307
24.2278796029
24.2221300134
24.2164613409
24.2108694306
24.2053515003
24.1999057698
24.1945306931
24.189224561
24.1839873987
24.1788213384
24.1737283445
24.1687108761
24.1637712825
24.1589131641
24.1541423444
24.1494641614
24.1448834179
24.1404063996
24.1360415857
24.1317980969
24.1276831992
24.1237048572
24.1198725851
24.1161971622
24.1126878003
24.1093533913
24.1062045042
24.1032497704
24.1004950982
24.0979443383
24.095601012
24.0934636148
24.0915246182
24.0897687346
24.0881723342
24.0867000729
24.085299103
24.083897755
24.082399077
24.0806706172
24.0785363844
24.0757666643
24.072059261
24.0670181257
24.0601286699
24.0507227983
24.0379317303
24.0206341563
23.9974014177
23.9664532341
23.9256793338
23.8728294894
23.8060287476
23.7248428578
23.6320550261
23.5359737937
23.4524200565
23.4047520323
23.4197299451
23.5182714322
23.7020219652
23.9395021273
24.1561174858
24.2361672247
24.0312972006
23.3709722495
22.1009095277
20.113534282
17.4115802253
14.1412783945
10.4068238508
5.99268566838
1.37725985956
52.9745730335
48.9221305765
46.2140845997
44.0680572574
42.2738630278
40.7319552189
39.3830275077
38.1889909487
37.1231610069
36.1657613664
35.3016214226
34.5187732016
33.807532178
33.1598753741
32.5690159502
32.0291130402
31.5350754745
31.0824265471
30.6672071651
30.2859033718
29.9353879779
29.6128723144
29.3158649673
29.0421349174
28.789680163
28.5567006728
28.3415741785
28.1428350046
27.9591565877
27.7893351402
27.6322760711
27.4869824027
27.3525440049
27.2281281668
27.1129717971
27.0063741096
26.9076904255
26.8163267652
26.7317346105
26.6534057215
26.5808664913
26.5136742976
26.4514217901
26.3937406424
26.3402929244
26.2907589606
26.2448497488
26.2022903969
26.1628201354
26.1262037707
26.0922204346
26.060663966
26.0313450775
26.0040877324
25.9787270542
25.9551109624
25.9331013724
25.9125694665
25.8933946371
25.8754650545
25.8586776801
25.8429373651
25.828155587
25.814250116
25.801145634
25.7887725177
25.7770669288
25.765970143
25.7554284644
25.7453917691
25.7358145477
25.7266549464
25.7178749063
25.7094392964
25.7013159415
25.6934749816
25.6858906419
25.6785398376
25.6714005346
25.6644527014
25.6576780626
25.6510607353
25.6445876197
25.6382467453
25.632025408
25.6259141341
25.6199027854
25.6139845743
25.6081532359
25.6024026878
25.5967275946
25.5911255969
25.5855923698
25.5801280518
25.574727415
25.5693904806
25.5641192746
25.5589141887
25.5537760046
25.5487072471
25.5437091269
25.5387873009
25.5339446108
25.5291861469
25.5245130934
25.5199377672
25.5154611059
25.511091588
25.5068331133
25.5026919581
25.4986784519
25.4947935771
25.4910462112
25.4874388807
25.4839777719
25.4806588665
25.4774826898
25.4744398273
25.4715233884
25.4687101823
25.4659734708
25.4632743
25.4605578669
25.4577494694
25.4547494113
25.4514320969
25.4476232937
25.4431021327
25.4375840023
25.4306959178
25.4219543696
25.4107393873
25.3962463398
25.3774307796
25.3529519513
25.321083206
25.2796640054
25.2260824551
25.1574504991
25.0711069945
24.9657327778
24.8432507401
24.7113343744
24.5856654907
24.4900512802
24.4521877654
24.4939105341
24.6170179916
24.7890513648
24.9335985703
24.932396847
24.6406487752
23.8869298329
22.5244128745
20.4526762343
17.6784674513
14.3444799156
10.5635606113
6.13773648621
1.460721223
55.1841135358
51.2505667983
48.3874656932
46.1100116566
44.2158202094
42.5972846573
41.1882969976
39.9460182625
38.8405526576
37.8499300417
36.957449409
36.1500511055
35.4172565825
34.7504547848
34.1424165616
33.5869646981
33.0787492908
32.6130930355
32.185880172
31.793473401
31.4326473632
31.1005341126
30.7945772415
30.5124918626
30.2522309251
30.0119555852
29.7900097602
29.5848975611
29.3952648973
29.2198827102
29.0576329573
28.907496327
28.7685411356
28.6399137239
28.520830669
28.4105718439
28.3084743205
28.2139271264
28.1263666755
28.0452723155
27.9701629143
27.9005945904
27.836154494
27.7764566936
27.7211450461
27.6698892756
27.622385753
27.5783521709
27.5375245458
27.4996586855
27.4645271654
27.4319182019
27.4016346988
27.3734943206
27.3473284884
27.3229820931
27.3003081755
27.2791704559
27.2594428599
27.2410086701
27.2237602173
27.207598351
27.1924314541
27.1781746358
27.164749978
27.152085338
27.1401141549
27.1287747884
27.1180109764
27.1077706133
27.0980065064
27.0886753771
27.079737683
27.0711566068
27.0628987813
27.0549337715
27.047234636
27.0397767937
27.0325368822
27.0254938621
27.0186290134
27.01192593
27.0053704296
26.9989498453
26.9926507745
26.9864631289
26.98037638
26.974382964
26.9684758354
26.9626479911
26.9568938448
26.9512111522
26.9455938815
26.9400413545
26.9345485874
26.9291140341
26.9237388591
26.9184219666
26.9131633331
26.9079654289
26.9028277879
26.8977541782
26.8927457881
26.8878080346
26.8829405127
26.8781520178
26.873441211
26.868813691
26.8642732523
26.8598221132
26.8554669528
26.8512056113
26.8470423313
26.8429748511
26.8390039096
26.8351202099
26.8313172066
26.8275770981
26.8238807578
26.8201952812
26.8164825089
26.8126877504
26.8087377606
26.8045371426
26.7999600771
26.7948501722
26.7889982679
26.7821393054
26.7739342842
26.7639447266
26.7516063156
26.7361957938
26.716781924
26.6921555626
26.6607612822
26.6205939239
26.5691247707
26.5032588454
26.4194826946
26.3143568856
26.1856570623
26.0343892946
25.867497917
25.7003738745
25.5571250834
25.4662549851
25.4504925298
25.5119133371
25.6173975146
25.6891833556
25.6065208493
25.2295429319
24.3851767218
22.9350518657
20.7847907705
17.9437870891
14.5496033802
10.7219066778
6.28075153107
1.54104129841
56.9897382386
53.2660124009
50.3662676684
48.0176067639
46.055187131
44.378551094
42.9214969772
41.6393623351
40.5004681734
39.4814150984
38.5644102728
37.7355707112
36.9837973039
36.3000090714