/*--------------------------------*- C++ -*----------------------------------*\
| =========                 |                                                 |
| \\      /  F ield         | OpenFOAM: The Open Source CFD Toolbox           |
|  \\    /   O peration     | Version:  2106                                  |
|   \\  /    A nd           | Website:  www.openfoam.com                      |
|    \\/     M anipulation  |                                                 |
\*---------------------------------------------------------------------------*/
FoamFile
{
    version     2.0;
    format      ascii;
    arch        "LSB;label=32;scalar=64";
    class       volVectorField;
    location    "0.1";
    object      U;
}
// * * * * * * * * * * * * * * * * * * * * * * * * * * * * * * * * * * * * * //

dimensions      [0 1 -1 0 0 0 0];

internalField   nonuniform List<vector> 
11200
(
(0.662462403449 0.150569444414 0)
(0.558948663437 0.103243392681 0)
(0.38385070681 0.0513512313666 0)
(0.283747538044 0.0248708654294 0)
(0.232075180131 0.0124170585436 0)
(0.201908461267 0.00662283254941 0)
(0.183197777249 0.00380293032585 0)
(0.171276322642 0.00231588210573 0)
(0.163510172855 0.00146450867261 0)
(0.15838874224 0.000944876630377 0)
(0.155006820807 0.000615133578906 0)
(0.152787236142 0.000402152086614 0)
(0.15134765257 0.000264100236136 0)
(0.150430219241 0.000175054792731 0)
(0.149859691461 0.000118085800334 0)
(0.149516867163 8.17815077857e-05 0)
(0.149320996708 5.83429431777e-05 0)
(0.149217598335 4.25942759625e-05 0)
(0.149169843942 3.20389441468e-05 0)
(0.14915501776 2.73636394533e-05 0)
(0.149160035643 2.67515214514e-05 0)
(0.149175017696 2.9471251865e-05 0)
(0.14919315434 3.2796166758e-05 0)
(0.149211303693 3.57828067156e-05 0)
(0.14922801097 3.84814587687e-05 0)
(0.14924257876 4.0979417382e-05 0)
(0.149254800019 4.33099285389e-05 0)
(0.149264754963 4.55009831535e-05 0)
(0.149272668479 4.75864877183e-05 0)
(0.149278825426 4.96057034975e-05 0)
(0.149283522812 5.16069171523e-05 0)
(0.149287048398 5.36600194621e-05 0)
(0.149289655858 5.58620536347e-05 0)
(0.149291539968 5.82338006547e-05 0)
(0.149292868747 6.06408783446e-05 0)
(0.149293765334 6.30178433996e-05 0)
(0.149294324225 6.53493871628e-05 0)
(0.149294656245 6.76450550596e-05 0)
(0.149294845518 6.99249065879e-05 0)
(0.149294936817 7.21999958781e-05 0)
(0.149294960557 7.44739675146e-05 0)
(0.149294941155 7.67491145932e-05 0)
(0.149294895249 7.90263502948e-05 0)
(0.149294833205 8.13050650798e-05 0)
(0.149294761677 8.35835932151e-05 0)
(0.149294685191 8.58596030379e-05 0)
(0.149294606875 8.81303345253e-05 0)
(0.14929452898 9.03928728172e-05 0)
(0.149294454518 9.26439908857e-05 0)
(0.149294388472 9.48806576726e-05 0)
(0.149294337978 9.70998535575e-05 0)
(0.149294312769 9.92986827505e-05 0)
(0.149294325531 0.000101474404289 0)
(0.149294392629 0.000103624061071 0)
(0.149294536308 0.000105744087514 0)
(0.149294788975 0.000107829856086 0)
(0.149295198861 0.000109874781542 0)
(0.149295835465 0.000111869837977 0)
(0.149296801824 0.000113800460369 0)
(0.149298251231 0.000115643118124 0)
(0.149300420647 0.000117346925494 0)
(0.149303709306 0.00011882662261 0)
(0.149308613501 0.000120097567327 0)
(0.149315783947 0.000121341292451 0)
(0.149326249339 0.000123006101777 0)
(0.149341544251 0.000125360966822 0)
(0.149364076628 0.000128156480803 0)
(0.149397601397 0.000131145341953 0)
(0.149447802913 0.000134099960177 0)
(0.149523033371 0.000136918882663 0)
(0.149635393423 0.00014098974708 0)
(0.149808291902 0.000152377712129 0)
(0.150079975086 0.000173548465949 0)
(0.150514069008 0.000204448346442 0)
(0.151247619072 0.000235456784496 0)
(0.15256142539 0.000195283925366 0)
(0.155117705444 -0.000219403247888 0)
(0.162528457136 -0.00215278383593 0)
(0.18817087136 -0.0110381910831 0)
(0.206259820877 -0.0511432546049 0)
(0.965408251742 0.289214713576 0)
(0.961962835849 0.25265605882 0)
(0.823574326333 0.15902147242 0)
(0.698139249848 0.095995772083 0)
(0.610225287017 0.0582481602553 0)
(0.548971267684 0.0362148938032 0)
(0.506588654915 0.0231613009823 0)
(0.477567104457 0.0151374767587 0)
(0.457745535612 0.0100176214062 0)
(0.444228928481 0.00665786098035 0)
(0.435054496408 0.00441507004738 0)
(0.428875451321 0.00290610931024 0)
(0.424758175506 0.00188996731066 0)
(0.42205286271 0.00120856058697 0)
(0.420306932208 0.00075523552784 0)
(0.419205941882 0.000456847533626 0)
(0.418532672314 0.000262943722321 0)
(0.418138556829 0.000139001079558 0)
(0.417923648331 6.2386479449e-05 0)
(0.417820818253 1.9517196065e-05 0)
(0.417786815018 -1.9407458949e-06 0)
(0.417790549917 -1.39048580195e-05 0)
(0.417811268705 -1.78139608966e-05 0)
(0.417839654815 -1.73881170176e-05 0)
(0.417870188924 -1.47871344735e-05 0)
(0.417899327955 -1.1160312728e-05 0)
(0.417925263396 -7.1827268785e-06 0)
(0.417947325594 -3.25333740467e-06 0)
(0.417965484967 4.06209510435e-07 0)
(0.417980055077 3.68072339347e-06 0)
(0.417991525705 6.50638395054e-06 0)
(0.418000464794 8.82099059571e-06 0)
(0.418007339775 1.05246215641e-05 0)
(0.41801238353 1.16399138253e-05 0)
(0.418015900814 1.25019966825e-05 0)
(0.418018271646 1.33364544576e-05 0)
(0.418019790938 1.40898193273e-05 0)
(0.418020738602 1.47507291095e-05 0)
(0.418021314729 1.53632090724e-05 0)
(0.41802162809 1.59479335365e-05 0)
(0.418021755535 1.65079237086e-05 0)
(0.418021758908 1.70494295975e-05 0)
(0.418021680812 1.75795383113e-05 0)
(0.418021548733 1.81040880587e-05 0)
(0.418021380813 1.86278000313e-05 0)
(0.418021189512 1.91545781174e-05 0)
(0.418020983787 1.9687669028e-05 0)
(0.418020770523 2.02297688637e-05 0)
(0.418020558005 2.0781365868e-05 0)
(0.418020358262 2.13434888539e-05 0)
(0.418020187726 2.19172650171e-05 0)
(0.41802006919 2.25036010078e-05 0)
(0.418020033629 2.31028647011e-05 0)
(0.41802012293 2.37143710889e-05 0)
(0.418020395459 2.43363919764e-05 0)
(0.418020935354 2.49663830496e-05 0)
(0.418021866439 2.56007633039e-05 0)
(0.418023367363 2.6234824081e-05 0)
(0.418025701796 2.68493682382e-05 0)
(0.418029252142 2.74147904252e-05 0)
(0.418034599304 2.78802252357e-05 0)
(0.418042804508 2.81746535676e-05 0)
(0.418055399053 2.84152329732e-05 0)
(0.418074541436 2.80374729188e-05 0)
(0.418103086768 2.55807021241e-05 0)
(0.418144686786 1.97857948082e-05 0)
(0.418205532438 9.83666762988e-06 0)
(0.418295927856 -5.81807623058e-06 0)
(0.418431809428 -2.97626049027e-05 0)
(0.418638647756 -6.57656164245e-05 0)
(0.418959317454 -0.00011809710143 0)
(0.419464828769 -0.000191848497507 0)
(0.420271206418 -0.000314741859262 0)
(0.421586961433 -0.000545213369678 0)
(0.423812736013 -0.00102260316285 0)
(0.427686091259 -0.00213676938075 0)
(0.434669934505 -0.00496613115952 0)
(0.449031811531 -0.0125493625368 0)
(0.47617830135 -0.0351120439826 0)
(0.481321356087 -0.101679295213 0)
(1.02222096187 0.238416201002 0)
(1.08213750335 0.29592669382 0)
(1.03447715686 0.239503131798 0)
(0.954615287147 0.174290245273 0)
(0.879991885416 0.121345546387 0)
(0.818614245421 0.0830994256551 0)
(0.771410707572 0.0567316174542 0)
(0.736634419436 0.0387407474637 0)
(0.71162483576 0.0264322872743 0)
(0.693917699199 0.0179721938204 0)
(0.681543580261 0.0121409740239 0)
(0.673003918825 0.00812270975955 0)
(0.667186750552 0.00536324055601 0)
(0.663280858708 0.00348034475161 0)
(0.660701640698 0.0022073420069 0)
(0.659032205421 0.00135699832135 0)
(0.657978369198 0.000797727594411 0)
(0.657334859604 0.000437397434131 0)
(0.656960131154 0.000211779031885 0)
(0.656757038632 7.58064277628e-05 0)
(0.656658849661 -1.74110461842e-06 0)
(0.656625610609 -4.57210303533e-05 0)
(0.656630446164 -6.93842142911e-05 0)
(0.656652779528 -7.89045340977e-05 0)
(0.656682675402 -7.97807415219e-05 0)
(0.656714197969 -7.59979462943e-05 0)
(0.656743931908 -7.00082259038e-05 0)
(0.656770191999 -6.32613888524e-05 0)
(0.656792361802 -5.6584979697e-05 0)
(0.656810433509 -5.04203918161e-05 0)
(0.656824710393 -4.4983171476e-05 0)
(0.65683562652 -4.0380121497e-05 0)
(0.656843763961 -3.67083113603e-05 0)
(0.656849935482 -3.39929662136e-05 0)
(0.656854746001 -3.2120984072e-05 0)
(0.656858232567 -3.10588385421e-05 0)
(0.656860507172 -3.05703230359e-05 0)
(0.65686196473 -3.06316497311e-05 0)
(0.656862890606 -3.10216254051e-05 0)
(0.656863422778 -3.16110074552e-05 0)
(0.656863669901 -3.23467974591e-05 0)
(0.656863726731 -3.31817504622e-05 0)
(0.656863658761 -3.40762175898e-05 0)
(0.656863508923 -3.50014295622e-05 0)
(0.656863306057 -3.59381199457e-05 0)
(0.656863070122 -3.68736558289e-05 0)
(0.656862815453 -3.77992670083e-05 0)
(0.65686255188 -3.87070431268e-05 0)
(0.656862291182 -3.9592381355e-05 0)
(0.656862051141 -4.04491761133e-05 0)
(0.656861854988 -4.12723442728e-05 0)
(0.656861734262 -4.2058311209e-05 0)
(0.656861732143 -4.28054221792e-05 0)
(0.656861908634 -4.35151820884e-05 0)
(0.656862349518 -4.41950103842e-05 0)
(0.656863179915 -4.48662133711e-05 0)
(0.656864584156 -4.55786287637e-05 0)
(0.656866820864 -4.64181953561e-05 0)
(0.656870274349 -4.75317447643e-05 0)
(0.656875524059 -4.91394017068e-05 0)
(0.656883459368 -5.17009046432e-05 0)
(0.656895678965 -5.62371861046e-05 0)
(0.65691373135 -6.36386712848e-05 0)
(0.656939071136 -7.48981479181e-05 0)
(0.656975280688 -9.16090385888e-05 0)
(0.657029170082 -0.000116290555379 0)
(0.657110408539 -0.000152212577559 0)
(0.657233062777 -0.000204802557034 0)
(0.657419424419 -0.000282844433599 0)
(0.657705741921 -0.000400661348358 0)
(0.658151624702 -0.000583372262161 0)
(0.658848725642 -0.000879580407108 0)
(0.659948560255 -0.00138166204442 0)
(0.661716734883 -0.00226736085387 0)
(0.664610019683 -0.00390904525085 0)
(0.669351610833 -0.00712826761058 0)
(0.677017584157 -0.0137195786957 0)
(0.689703008242 -0.0276325951753 0)
(0.707113878145 -0.0581100102999 0)
(0.703562894708 -0.117293445837 0)
(1.02251475154 0.170807173943 0)
(1.10138973583 0.276496541217 0)
(1.11752420644 0.266664895305 0)
(1.0921465137 0.219901810071 0)
(1.05187803871 0.168168937966 0)
(1.01020811915 0.123567404677 0)
(0.973494675294 0.0888373511658 0)
(0.943864765038 0.063005885682 0)
(0.921143443491 0.0442222220851 0)
(0.904285455332 0.0307406934342 0)
(0.892077402275 0.0211536253535 0)
(0.883408724505 0.0143915633931 0)
(0.877359212773 0.00966254717895 0)
(0.873207335583 0.00638671430549 0)
(0.87040649164 0.00414215487514 0)
(0.8685524411 0.00262351421259 0)
(0.867351803396 0.00161109861361 0)
(0.866595046401 0.000947951928066 0)
(0.866134741126 0.000522821960605 0)
(0.865868513676 0.000257515566637 0)
(0.865725542441 9.82510577328e-05 0)
(0.865657720762 9.22044860045e-06 0)
(0.865636230499 -3.82399536071e-05 0)
(0.865642362285 -5.93712074594e-05 0)
(0.865661771096 -6.46373386365e-05 0)
(0.865686273659 -6.10279490921e-05 0)
(0.865711417084 -5.29591397152e-05 0)
(0.865734804224 -4.31201908611e-05 0)
(0.86575529537 -3.30774518946e-05 0)
(0.865772516918 -2.36794024782e-05 0)
(0.865786536784 -1.53304143188e-05 0)
(0.86579764421 -8.15365901728e-06 0)
(0.865806196621 -2.09528668633e-06 0)
(0.865812525783 2.88030921938e-06 0)
(0.865816957997 6.61445177935e-06 0)
(0.86581998487 9.10626638102e-06 0)
(0.865821945327 1.08187000682e-05 0)
(0.865823182562 1.22264620458e-05 0)
(0.865824046792 1.33717887497e-05 0)
(0.865824575911 1.43692632755e-05 0)
(0.865824830753 1.52260234975e-05 0)
(0.865824901382 1.59691318708e-05 0)
(0.865824847218 1.66323287516e-05 0)
(0.865824703928 1.72449569532e-05 0)
(0.865824495177 1.78300955902e-05 0)
(0.86582423891 1.84063362347e-05 0)
(0.865823951118 1.89908676824e-05 0)
(0.86582364421 1.95999642678e-05 0)
(0.865823333755 2.02263771554e-05 0)
(0.86582304181 2.08691392593e-05 0)
(0.865822794972 2.15260129039e-05 0)
(0.865822629594 2.21890639169e-05 0)
(0.865822595261 2.28433524118e-05 0)
(0.865822758862 2.3464487798e-05 0)
(0.865823209313 2.40139407096e-05 0)
(0.865824064006 2.4433614311e-05 0)
(0.865825493746 2.46538239213e-05 0)
(0.865827744089 2.46285039678e-05 0)
(0.865831189216 2.41902078507e-05 0)
(0.865836287155 2.3027038843e-05 0)
(0.865843459406 2.04583936279e-05 0)
(0.865854176133 1.57890450269e-05 0)
(0.865871009934 7.37778644289e-06 0)
(0.86589710108 -6.72693112962e-06 0)
(0.865936454937 -2.85761057133e-05 0)
(0.865994976984 -6.20989728851e-05 0)
(0.866082112082 -0.000114362171676 0)
(0.866212629605 -0.000196457338948 0)
(0.866409577047 -0.000326186849438 0)
(0.866708677993 -0.000532933835212 0)
(0.867165163378 -0.00086718614948 0)
(0.867866861557 -0.00141850728678 0)
(0.868954921493 -0.00234037623118 0)
(0.870651012473 -0.00391640373038 0)
(0.873288537342 -0.00668842576975 0)
(0.877290922857 -0.0117017889631 0)
(0.883019060701 -0.0209009381462 0)
(0.890707708828 -0.0377129343785 0)
(0.897958306899 -0.0679796933016 0)
(0.888803741711 -0.114934601542 0)
(1.01287874888 0.118961049529 0)
(1.08820669405 0.231807012531 0)
(1.13741363884 0.253106877725 0)
(1.15409081839 0.228992876445 0)
(1.14994205768 0.188368439408 0)
(1.1353846363 0.146579795423 0)
(1.11758902807 0.110150656166 0)
(1.10059528776 0.080815466686 0)
(1.08612522331 0.0582251339045 0)
(1.07459216843 0.0413165618676 0)
(1.06579360218 0.0289122827939 0)
(1.05929139608 0.0199546955717 0)
(1.0546049042 0.0135741458933 0)
(1.05129817731 0.00908772024813 0)
(1.04901013202 0.00597390267844 0)
(1.04745720412 0.00384207815178 0)
(1.04642449895 0.00240409923979 0)
(1.04575337735 0.0014502165353 0)
(1.04532917807 0.0008296549086 0)
(1.04507045903 0.000435293157087 0)
(1.04492003267 0.000191988342807 0)
(1.04483900383 4.84981376508e-05 0)
(1.04480184325 -2.93263837397e-05 0)
(1.04479104579 -6.71429383223e-05 0)
(1.04479484354 -8.12147920376e-05 0)
(1.04480599951 -8.16736817801e-05 0)
(1.04482010011 -7.49461289398e-05 0)
(1.0448345585 -6.50336207092e-05 0)
(1.04484796852 -5.43332593918e-05 0)
(1.04485965467 -4.42022689666e-05 0)
(1.04486938074 -3.53319007771e-05 0)
(1.04487716612 -2.80058515642e-05 0)
(1.04488317864 -2.22518391653e-05 0)
(1.044887688 -1.79165520077e-05 0)
(1.04489100978 -1.46807231871e-05 0)
(1.04489351127 -1.2170317607e-05 0)
(1.04489556026 -1.02058337741e-05 0)
(1.04489715841 -8.49010252407e-06 0)
(1.04489826743 -7.14195835694e-06 0)
(1.04489898492 -6.29204321172e-06 0)
(1.04489935328 -5.83048603062e-06 0)
(1.04489949445 -5.62267506021e-06 0)
(1.04489948604 -5.55949346584e-06 0)
(1.04489937384 -5.56742477225e-06 0)
(1.04489918886 -5.60851893163e-06 0)
(1.04489895604 -5.66262281041e-06 0)
(1.04489869652 -5.72178072506e-06 0)
(1.0448984078 -5.78849288772e-06 0)
(1.04489809538 -5.84351194558e-06 0)
(1.04489778834 -5.88004151866e-06 0)
(1.04489751321 -5.89890187443e-06 0)
(1.04489730256 -5.90381758047e-06 0)
(1.04489720142 -5.90199803711e-06 0)
(1.04489727185 -5.90662003689e-06 0)
(1.04489760243 -5.94220568397e-06 0)
(1.04489833623 -6.05997909954e-06 0)
(1.04489973165 -6.39714125028e-06 0)
(1.04490206036 -7.343767802e-06 0)
(1.04490563277 -9.33381664116e-06 0)
(1.04491081527 -1.29557446476e-05 0)
(1.04491849754 -1.7901857826e-05 0)
(1.04493001703 -2.41006426987e-05 0)
(1.04494661398 -3.36633947299e-05 0)
(1.04497043837 -4.96303934991e-05 0)
(1.04500502501 -7.64396574031e-05 0)
(1.0450555729 -0.000120542118109 0)
(1.04512978462 -0.000191992729362 0)
(1.04523918692 -0.000306822050636 0)
(1.04540127204 -0.000490974376754 0)
(1.04564256827 -0.000786796681014 0)
(1.04600300983 -0.0012638604646 0)
(1.04654256414 -0.0020376109296 0)
(1.04734891278 -0.00330541786851 0)
(1.04854105464 -0.00541045845676 0)
(1.0502560355 -0.00895235948954 0)
(1.05256494177 -0.0149675298912 0)
(1.05524147961 -0.0251430962523 0)
(1.05750804212 -0.0419350729488 0)
(1.05663500713 -0.0684312737376 0)
(1.043164373 -0.104504248937 0)
(1.00447483348 0.0814040244199 0)
(1.06917236771 0.181288616707 0)
(1.13080567855 0.216950532605 0)
(1.17374999922 0.210789271655 0)
(1.19865266268 0.183690132555 0)
(1.21019992704 0.149751576404 0)
(1.21350267341 0.116778721981 0)
(1.21251747285 0.0882197290153 0)
(1.20973139674 0.065046401389 0)
(1.20651187581 0.0470180265379 0)
(1.20352018445 0.0334024164703 0)
(1.20101300388 0.0233494325287 0)
(1.19903665649 0.0160634185017 0)
(1.19754181418 0.0108682847887 0)
(1.19644537592 0.00722007637235 0)
(1.1956608859 0.00469640061412 0)
(1.19511164695 0.00297753641304 0)
(1.19473490267 0.00182629797776 0)
(1.19448178786 0.00106970863275 0)
(1.19431550705 0.000583508895079 0)
(1.19420899074 0.000279739283828 0)
(1.19414310346 9.73119136743e-05 0)
(1.1941044561 -6.18192682521e-06 0)
(1.19408340474 -5.98843357591e-05 0)
(1.19407337761 -8.30360045181e-05 0)
(1.19407004704 -8.81987517568e-05 0)
(1.19407054964 -8.34478053665e-05 0)
(1.19407304209 -7.38431463569e-05 0)
(1.19407638214 -6.24495947781e-05 0)
(1.19407989901 -5.10325481547e-05 0)
(1.19408322675 -4.0512886203e-05 0)
(1.19408618642 -3.12808436002e-05 0)
(1.19408871785 -2.34008505996e-05 0)
(1.19409084392 -1.67659638606e-05 0)
(1.19409262159 -1.12366401914e-05 0)
(1.19409410343 -6.69585095816e-06 0)
(1.1940953097 -3.12072179819e-06 0)
(1.19409616197 -5.67900747116e-07 0)
(1.1940965596 1.1663860449e-06 0)
(1.19409664642 2.27194147049e-06 0)
(1.19409665165 3.12153875436e-06 0)
(1.19409663845 3.81129484698e-06 0)
(1.19409660481 4.35016099133e-06 0)
(1.19409652593 4.77403486331e-06 0)
(1.19409638429 5.12779975487e-06 0)
(1.19409617784 5.44322171621e-06 0)
(1.19409590952 5.73345082655e-06 0)
(1.19409560584 5.9946249219e-06 0)
(1.19409529586 6.244148085e-06 0)
(1.19409499122 6.49828056169e-06 0)
(1.19409471617 6.75599484672e-06 0)
(1.19409450904 7.0020921795e-06 0)
(1.19409442092 7.21084413457e-06 0)
(1.19409451717 7.34336540145e-06 0)
(1.19409487394 7.3421668542e-06 0)
(1.19409554439 7.1261434421e-06 0)
(1.1940964648 6.57797624112e-06 0)
(1.19409769177 5.44160068864e-06 0)
(1.19409950843 3.12614938549e-06 0)
(1.19410308023 -7.46311452611e-07 0)
(1.19410953155 -6.80348036406e-06 0)
(1.19411864349 -1.64096069549e-05 0)
(1.19413090776 -3.17211236389e-05 0)
(1.19414820306 -5.56406523122e-05 0)
(1.19417268921 -9.28316679114e-05 0)
(1.19420716421 -0.000150779572298 0)
(1.19425560046 -0.000241442748926 0)
(1.19432362636 -0.000383829293245 0)
(1.19441917159 -0.000608339195723 0)
(1.19455319117 -0.000963918058503 0)
(1.19474023661 -0.00152982011706 0)
(1.19499783964 -0.00243473325599 0)
(1.19534194645 -0.00388985424947 0)
(1.1957716916 -0.00624209765239 0)
(1.19622912429 -0.0100547749883 0)
(1.19649596963 -0.0162146246202 0)
(1.19598122323 -0.0260067661034 0)
(1.19350859016 -0.0410097621741 0)
(1.18667468635 -0.0626533524023 0)
(1.16978042498 -0.0898690402852 0)
(0.99896232528 0.0544316494418 0)
(1.05310957011 0.133401677735 0)
(1.11628269456 0.170777659058 0)
(1.17301275101 0.175143968745 0)
(1.21791251764 0.159583634886 0)
(1.25049865616 0.134950877318 0)
(1.27288499831 0.108411190372 0)
(1.28776728821 0.0838839721785 0)
(1.2974526723 0.0630547695535 0)
(1.30366058058 0.0462969888899 0)
(1.30759188414 0.0333160824166 0)
(1.31005278148 0.0235432003794 0)
(1.31157203051 0.0163513117419 0)
(1.31249240525 0.0111601131503 0)
(1.31303488757 0.00747745203407 0)
(1.31334146863 0.00490745502221 0)
(1.31350307006 0.00314297693409 0)
(1.31357760064 0.00195202534224 0)
(1.31360162648 0.00116309440067 0)
(1.31359792543 0.000651676191195 0)
(1.31358038539 0.00032885868864 0)
(1.31355736644 0.000132169684321 0)
(1.31353370619 1.79884710847e-05 0)
(1.31351181839 -4.3404703554e-05 0)
(1.31349274977 -7.19567461272e-05 0)
(1.31347683481 -8.08427438342e-05 0)
(1.31346396013 -7.86047461238e-05 0)
(1.31345380943 -7.06477622395e-05 0)
(1.31344599193 -6.02884276884e-05 0)
(1.31344011238 -4.9478532356e-05 0)
(1.31343580456 -3.92999603454e-05 0)
(1.31343274266 -3.02873079278e-05 0)
(1.31343064479 -2.26438137737e-05 0)
(1.31342925749 -1.63862996053e-05 0)
(1.31342835581 -1.14561010632e-05 0)
(1.31342778578 -7.75243907644e-06 0)
(1.31342744413 -5.13742871683e-06 0)
(1.31342722154 -3.39905001061e-06 0)
(1.31342710814 -2.2114052841e-06 0)
(1.3134272178 -1.27846484215e-06 0)
(1.31342743112 -6.05882894947e-07 0)
(1.31342752543 -9.56118271494e-08 0)
(1.31342749747 3.14157337057e-07 0)
(1.31342740501 6.45979020358e-07 0)
(1.31342726929 9.30630772733e-07 0)
(1.31342708885 1.20016715121e-06 0)
(1.31342685848 1.48378283364e-06 0)
(1.31342658295 1.80723738302e-06 0)
(1.31342628719 2.16509168774e-06 0)
(1.3134259894 2.53314120079e-06 0)
(1.31342569515 2.88906661535e-06 0)
(1.31342542149 3.20595781504e-06 0)
(1.31342519909 3.4419372293e-06 0)
(1.31342507024 3.53398847292e-06 0)
(1.31342509692 3.39048145226e-06 0)
(1.31342538386 2.88416942397e-06 0)
(1.31342606317 1.87317310312e-06 0)
(1.31342704985 3.14546317385e-07 0)
(1.31342858452 -1.97367968336e-06 0)
(1.31343105823 -5.49423731629e-06 0)
(1.31343461818 -1.16382784515e-05 0)
(1.31343944949 -2.21267089721e-05 0)
(1.31344577567 -3.86203250035e-05 0)
(1.31345399987 -6.42580038425e-05 0)
(1.31346437169 -0.000104149583851 0)
(1.31347686605 -0.000166219086303 0)
(1.31349096461 -0.000262849629969 0)
(1.3135051238 -0.000413486151425 0)
(1.31351579901 -0.000648888655938 0)
(1.31351561212 -0.00101792690332 0)
(1.3134901126 -0.00159844400398 0)
(1.31341093032 -0.00251362401178 0)
(1.31322194542 -0.00395857264199 0)
(1.31281265405 -0.00623907768596 0)
(1.31196758162 -0.00982220624496 0)
(1.31027026733 -0.0153872486441 0)
(1.30694439272 -0.0238239329147 0)
(1.30073378539 -0.0360674106888 0)
(1.28967724759 -0.0526876133794 0)
(1.27012175303 -0.0726127802885 0)
(0.995736074423 0.0346338783201 0)
(1.04179515183 0.0905689756879 0)
(1.10222841738 0.121549642497 0)
(1.16491417752 0.129605904515 0)
(1.22202575057 0.122009276651 0)
(1.26951900791 0.106019796127 0)
(1.30680226683 0.0870971338709 0)
(1.33499521675 0.0686358020111 0)
(1.35574429908 0.0523682755326 0)
(1.37069509723 0.0389230952344 0)
(1.38128073579 0.0282942800104 0)
(1.38865924697 0.0201658837843 0)
(1.3937249232 0.0141101958526 0)
(1.39714854888 0.00969581856699 0)
(1.39942289408 0.00653866575164 0)
(1.40090402137 0.00432000663491 0)
(1.40184556258 0.00278719968857 0)
(1.40242579946 0.00174646465511 0)
(1.40276841523 0.00105289221804 0)
(1.40295805685 0.000600346326764 0)
(1.40305180728 0.000312480400643 0)
(1.40308759779 0.000135284995942 0)
(1.4030901885 3.09963417223e-05 0)
(1.40307524154 -2.63188170019e-05 0)
(1.40305238548 -5.416606981e-05 0)
(1.40302736569 -6.41872867256e-05 0)
(1.40300336588 -6.39613112217e-05 0)
(1.40298198119 -5.83162038105e-05 0)
(1.4029638435 -5.02440717059e-05 0)
(1.40294902295 -4.15310231461e-05 0)
(1.40293728434 -3.3188526103e-05 0)
(1.40292824415 -2.57347824926e-05 0)
(1.40292146584 -1.9387274117e-05 0)
(1.40291651216 -1.41827866378e-05 0)
(1.40291298145 -1.00370264005e-05 0)
(1.40291054519 -6.79425143593e-06 0)
(1.40290896 -4.29096003751e-06 0)
(1.40290802518 -2.35806259702e-06 0)
(1.40290750901 -8.33911989782e-07 0)
(1.40290714638 3.23501870958e-07 0)
(1.40290690017 1.1021416667e-06 0)
(1.40290682302 1.60887969086e-06 0)
(1.40290681286 1.9850882406e-06 0)
(1.40290679571 2.30729386524e-06 0)
(1.40290674848 2.61232079679e-06 0)
(1.40290666229 2.92277664653e-06 0)
(1.40290653404 3.2546519981e-06 0)
(1.40290636438 3.62047292533e-06 0)
(1.40290614437 4.02112806e-06 0)
(1.40290587447 4.43186011004e-06 0)
(1.40290557903 4.82945741845e-06 0)
(1.40290528264 5.18958304233e-06 0)
(1.40290500894 5.47587137538e-06 0)
(1.4029047848 5.63379492365e-06 0)
(1.40290463665 5.58385614084e-06 0)
(1.40290458009 5.20678756855e-06 0)
(1.40290461934 4.31054882737e-06 0)
(1.40290477484 2.63818998724e-06 0)
(1.40290495421 4.45680397807e-08 0)
(1.40290534279 -4.256785723e-06 0)
(1.40290608619 -1.11951415039e-05 0)
(1.40290674036 -2.20448280356e-05 0)
(1.40290670233 -3.86559467305e-05 0)
(1.40290511819 -6.40065022507e-05 0)
(1.40290036977 -0.000102743130826 0)
(1.40288953622 -0.00016204032217 0)
(1.40286757506 -0.000253003748327 0)
(1.40282583731 -0.000392825691505 0)
(1.40274959732 -0.000608351658489 0)
(1.4026139661 -0.000941603948714 0)
(1.40237776237 -0.00145852505766 0)
(1.40197205733 -0.00226046938602 0)
(1.40128032413 -0.00350318442413 0)
(1.40010682226 -0.00542143645228 0)
(1.3981258268 -0.00835598843951 0)
(1.39480258225 -0.0127707068638 0)
(1.38928654462 -0.0192219360617 0)
(1.38036581509 -0.0282139529258 0)
(1.36643655829 -0.039916329566 0)
(1.34492954393 -0.0535324897666 0)
(0.994011531993 0.0192358169371 0)
(1.03484764753 0.0523338737195 0)
(1.09199266699 0.0723631748432 0)
(1.1566242762 0.079129273267 0)
(1.22032126367 0.0761045444752 0)
(1.27701953149 0.0673338673875 0)
(1.32424414987 0.0561506108068 0)
(1.36181540943 0.0447984116493 0)
(1.39068442688 0.0345293201082 0)
(1.41225892514 0.025879733866 0)
(1.4280149204 0.0189439768225 0)
(1.43929337448 0.0135813667767 0)
(1.44721959587 0.00955163649058 0)
(1.45269164673 0.00659374681191 0)
(1.45640135413 0.00446621070078 0)
(1.45886753196 0.00296385054513 0)
(1.46047087663 0.00192143474521 0)
(1.46148558409 0.00121079577326 0)
(1.46210585501 0.000735291701234 0)
(1.46246706136 0.000423688890725 0)
(1.46266208553 0.000224485545106 0)
(1.46275364315 0.000101087004887 0)
(1.46278334466 2.78416327998e-05 0)
(1.46277814944 -1.29510369774e-05 0)
(1.46275509073 -3.32634375716e-05 0)
(1.46272464102 -4.11081448672e-05 0)
(1.46269292777 -4.17139954577e-05 0)
(1.46266328889 -3.8425293295e-05 0)
(1.46263732412 -3.33268998917e-05 0)
(1.46261558206 -2.76735436982e-05 0)
(1.46259800879 -2.21835068661e-05 0)
(1.46258422801 -1.72278886028e-05 0)
(1.46257371507 -1.29667764728e-05 0)
(1.46256590694 -9.43206788421e-06 0)
(1.4625602658 -6.57505178195e-06 0)
(1.462556317 -4.30671134156e-06 0)
(1.46255365872 -2.53898722013e-06 0)
(1.46255193651 -1.21078783314e-06 0)
(1.46255085495 -2.63506051523e-07 0)
(1.46255025428 4.27570331024e-07 0)
(1.46254997345 1.03662886306e-06 0)
(1.46254984655 1.55181304169e-06 0)
(1.46254980363 1.97609340762e-06 0)
(1.46254979368 2.34664490462e-06 0)
(1.46254978084 2.69508115037e-06 0)
(1.46254974031 3.04126481911e-06 0)
(1.46254965645 3.3949426576e-06 0)
(1.46254952196 3.75701277498e-06 0)
(1.46254933263 4.1218352257e-06 0)
(1.462549089 4.49148474759e-06 0)
(1.46254879795 4.85310988034e-06 0)
(1.46254846601 5.17648450604e-06 0)
(1.46254809879 5.41577065562e-06 0)
(1.4625477022 5.50584591743e-06 0)
(1.46254728344 5.35720577672e-06 0)
(1.46254685327 4.85206320541e-06 0)
(1.46254642853 3.84339703964e-06 0)
(1.46254594627 2.16119375528e-06 0)
(1.46254519084 -3.67869528547e-07 0)
(1.46254388145 -4.07495721835e-06 0)
(1.46254173433 -1.01870307165e-05 0)
(1.46253813717 -1.97941307387e-05 0)
(1.46253188764 -3.44053386706e-05 0)
(1.46252105515 -5.63651322908e-05 0)
(1.46250239584 -8.92789583752e-05 0)
(1.46247053288 -0.00013862144547 0)
(1.46241669863 -0.000212678661254 0)
(1.46232649277 -0.000323907080573 0)
(1.46217627431 -0.000491385457529 0)
(1.46192733881 -0.000744571682796 0)
(1.46151827348 -0.00112981825657 0)
(1.46085065701 -0.0017145857012 0)
(1.45976571313 -0.00259964169565 0)
(1.45801186243 -0.00393187395406 0)
(1.4551977368 -0.00591491682375 0)
(1.45072901071 -0.00880982564105 0)
(1.44373828781 -0.0129041360633 0)
(1.43308223528 -0.0184172491116 0)
(1.41738602045 -0.0253470777151 0)
(1.39463026618 -0.0331996778701 0)
(0.993269668135 0.00617015219557 0)
(1.03158101341 0.0171020553723 0)
(1.08672186322 0.0239906627386 0)
(1.15174562852 0.0265606779454 0)
(1.21823546864 0.0258180564289 0)
(1.27925781231 0.0230488489271 0)
(1.33140127823 0.0193655296191 0)
(1.37377554976 0.0155466505073 0)
(1.40690942154 0.0120445642586 0)
(1.43203088485 0.00906581109082 0)
(1.45059813272 0.00665971042015 0)
(1.46402326191 0.00478883412279 0)
(1.47353998646 0.00337672254947 0)
(1.48016071126 0.00233651770995 0)
(1.4846813042 0.00158612873137 0)
(1.48770775423 0.00105491340248 0)
(1.48968999184 0.000685500287059 0)
(1.49095513649 0.000433125072582 0)
(1.49173667758 0.000263891159841 0)
(1.49219846813 0.000152735590013 0)
(1.49245361999 8.14942670474e-05 0)
(1.49257893591 3.72340593185e-05 0)
(1.4926256569 1.08646407247e-05 0)
(1.49262723848 -3.90361077879e-06 0)
(1.49260499268 -1.13279406596e-05 0)
(1.49257213997 -1.42658017259e-05 0)
(1.49253653961 -1.45842926476e-05 0)
(1.4925025659 -1.34800417706e-05 0)
(1.49247240447 -1.17011617074e-05 0)
(1.49244690341 -9.69750749498e-06 0)
(1.49242613413 -7.72362464439e-06 0)
(1.49240974135 -5.92050191773e-06 0)
(1.49239716143 -4.34989538288e-06 0)
(1.49238776534 -3.0259735516e-06 0)
(1.49238093816 -1.93456690147e-06 0)
(1.49237612372 -1.04764428274e-06 0)
(1.49237284543 -3.36296463023e-07 0)
(1.49237071142 2.26523393385e-07 0)
(1.49236941267 6.90504664095e-07 0)
(1.49236868095 1.10905843226e-06 0)
(1.49236830231 1.45203009149e-06 0)
(1.49236814486 1.75864925025e-06 0)
(1.49236811514 2.05559794608e-06 0)
(1.49236814332 2.36030143039e-06 0)
(1.49236818164 2.68349374068e-06 0)
(1.49236819832 3.03127353043e-06 0)
(1.49236817291 3.40610353318e-06 0)
(1.49236809334 3.80683353965e-06 0)
(1.49236795155 4.22739324121e-06 0)
(1.49236774274 4.65895893181e-06 0)
(1.49236746507 5.0838872036e-06 0)
(1.49236711545 5.47427118066e-06 0)
(1.49236668719 5.79030623979e-06 0)
(1.49236616848 5.97671675526e-06 0)
(1.49236553837 5.9571657012e-06 0)
(1.49236475943 5.62468085743e-06 0)
(1.49236378396 4.8261719813e-06 0)
(1.49236259269 3.3524271047e-06 0)
(1.4923609184 1.08660486284e-06 0)
(1.4923580437 -2.2434972154e-06 0)
(1.49235344976 -7.37071656013e-06 0)
(1.49234638551 -1.51175874216e-05 0)
(1.49233514031 -2.64867243535e-05 0)
(1.49231703614 -4.29200679273e-05 0)
(1.49228774409 -6.65221423973e-05 0)
(1.4922403112 -0.000100328950365 0)
(1.49216371924 -0.000148712353809 0)
(1.49204017966 -0.000217607144869 0)
(1.49184073331 -0.000315706212528 0)
(1.49151791124 -0.000456822084653 0)
(1.49099931053 -0.000665267641971 0)
(1.49017192839 -0.000966629144154 0)
(1.48885570188 -0.00139709469345 0)
(1.48677301814 -0.00200762159486 0)
(1.4835056673 -0.00286306760083 0)
(1.47844117824 -0.00403635008094 0)
(1.47072094704 -0.0055901852917 0)
(1.45925213317 -0.0075381722601 0)
(1.44276863996 -0.00980171477702 0)
(1.41948869287 -0.0121477750365 0)
(0.993270465927 -0.00616840906399 0)
(1.03158099605 -0.0171003914749 0)
(1.08672179702 -0.023989781986 0)
(1.15174566632 -0.0265602641449 0)
(1.21823554668 -0.0258179932023 0)
(1.27925791461 -0.0230490710379 0)