/*--------------------------------*- C++ -*----------------------------------*\
| =========                 |                                                 |
| \\      /  F ield         | OpenFOAM: The Open Source CFD Toolbox           |
|  \\    /   O peration     | Version:  2106                                  |
|   \\  /    A nd           | Website:  www.openfoam.com                      |
|    \\/     M anipulation  |                                                 |
\*---------------------------------------------------------------------------*/
FoamFile
{
    version     2.0;
    format      ascii;
    arch        "LSB;label=32;scalar=64";
    class       volScalarField;
    location    "0.08";
    object      p;
}
// * * * * * * * * * * * * * * * * * * * * * * * * * * * * * * * * * * * * * //

dimensions      [1 -1 -2 0 0 0 0];

internalField   nonuniform List<scalar> 
800
(
1
1
1
1
1
1
1
1
1
1
1
1
1
1
1
1
1
1
1
1
1
1
1
1
1
1
1
1
1
1
1
1
1
1
1
1
1
1
1
1
1
1
1
1
1
1
1
1
1
1
1
1
1
1
1
1
1
1
1
1
1
1
1
1
1
1
1
1
1
1
1
1
1
1
1
1
1
1
1
1
1
1
1
1
1
1
1
1
1
1
1
1
1
1
1
1
1
1
1
1
1
1
1
1
1
1
1
1
1
1
1
1
1
1
1
1
1
1
1
1
1
1
1
1
1
1
1
1
1
1
1
1
1
1
1
1
1
1
1
1
1
1
1
1
1
1
1
1
1
1
1
1
1
1
1
1
1
1
1
1
1
1
1
1
1
1
1
1
1
1
1
1
1
1
1
1
1
1
1
1
1
1
1
1
1
1
1
1
1
1
1
1
1
1
1
1
1
1
1
1
1
1
1
1
1
1
1
1
1
1
1
1
1
1
1
1
1
1
1
1
1
1
1
1
1
1
1
1
1
1
1
1
1
1
1
1
1
1
1
1
1
1
1
1
1
1
1
1
1
1
1
1
1
1
1
1
1
1
1
1
1
1
1
1
1
1
1
1
1
1
1
1
1
1
1
1
1
1
1
1
1
1
1
1
1
1
1
1
1
1
1
1
1
1
1
1
1
1
1
1
1
1
1
1
1
0.999936
0.998239
0.988922
0.971414
0.952948
0.936892
0.923013
0.910479
0.898701
0.887357
0.876286
0.865413
0.854702
0.844132
0.833695
0.823381
0.813188
0.80311
0.793145
0.783291
0.773545
0.763906
0.754373
0.744943
0.735615
0.726388
0.717262
0.708234
0.699303
0.69047
0.681732
0.673088
0.664539
0.656081
0.647716
0.639441
0.631257
0.623161
0.615153
0.607233
0.599398
0.59165
0.583986
0.576405
0.568908
0.561493
0.554159
0.546905
0.539731
0.532637
0.52562
0.518681
0.511818
0.505032
0.49832
0.491683
0.48512
0.478631
0.472213
0.465868
0.459593
0.45339
0.447256
0.441191
0.435196
0.429268
0.423409
0.417616
0.411891
0.406231
0.400637
0.395109
0.389645
0.384246
0.37891
0.373639
0.36843
0.363285
0.358201
0.35318
0.348219
0.34332
0.338481
0.333702
0.328982
0.324323
0.319731
0.315227
0.31088
0.306868
0.303567
0.301478
0.300752
0.300782
0.301424
0.301638
0.301467
0.301164
0.301091
0.301085
0.301126
0.301167
0.301187
0.301218
0.301275
0.30132
0.301343
0.301364
0.30141
0.301478
0.30153
0.301561
0.301584
0.301597
0.301599
0.301598
0.301609
0.301653
0.301697
0.301722
0.301741
0.301759
0.301768
0.301769
0.301774
0.301797
0.301821
0.301825
0.30182
0.301808
0.301788
0.301745
0.301701
0.30168
0.301673
0.301669
0.301654
0.301645
0.301646
0.301644
0.301623
0.301604
0.301608
0.301627
0.301629
0.301623
0.301636
0.301652
0.301654
0.301642
0.30164
0.301676
0.301692
0.301688
0.301695
0.301711
0.301721
0.301718
0.301698
0.301727
0.30176
0.301754
0.30175
0.301756
0.301758
0.301751
0.301748
0.301837
0.302067
0.302336
0.302147
0.302014
0.302802
0.30202
0.301103
0.301026
0.300998
0.301021
0.301204
0.301796
0.302633
0.30269
0.302463
0.302094
0.301505
0.300964
0.300817
0.300822
0.300973
0.30151
0.302238
0.302486
0.302544
0.302475
0.302045
0.301266
0.300851
0.30084
0.300899
0.301146
0.301714
0.302345
0.302542
0.302492
0.302342
0.30191
0.301236
0.300952
0.300945
0.30101
0.301279
0.301894
0.302388
0.302467
0.302445
0.302265
0.301728
0.30111
0.300949
0.300933
0.301017
0.301362
0.302003
0.302367
0.302384
0.302332
0.302112
0.301578
0.301059
0.300958
0.30102
0.301315
0.301513
0.301197
0.295274
0.243215
0.132046
0.100585
0.1
0.1
0.1
0.1
0.1
0.1
0.1
0.1
0.1
0.1
0.1
0.1
0.1
0.1
0.1
0.1
0.1
0.1
0.1
0.1
0.1
0.1
0.1
0.1
0.1
0.1
0.1
0.1
0.1
0.1
0.1
0.1
0.1
0.1
0.1
0.1
0.1
0.1
0.1
0.1
0.1
0.1
0.1
0.1
0.1
0.1
0.1
0.1
0.1
0.1
0.1
0.1
0.1
0.1
0.1
0.1
0.1
0.1
0.1
0.1
0.1
0.1
0.1
0.1
0.1
0.1
0.1
0.1
0.1
0.1
0.1
0.1
0.1
0.1
0.1
0.1
0.1
0.1
0.1
0.1
0.1
0.1
0.1
0.1
0.1
0.1
0.1
0.1
0.1
0.1
0.1
0.1
0.1
0.1
0.1
0.1
0.1
0.1
0.1
0.1
0.1
0.1
0.1
0.1
0.1
0.1
0.1
0.1
0.1
0.1
0.1
0.1
0.1
0.1
0.1
0.1
0.1
0.1
0.1
0.1
0.1
0.1
0.1
0.1
0.1
0.1
0.1
0.1
0.1
0.1
0.1
0.1
0.1
0.1
0.1
0.1
0.1
0.1
0.1
0.1
0.1
0.1
0.1
0.1
0.1
0.1
0.1
0.1
0.1
0.1
0.1
0.1
0.1
0.1
0.1
0.1
0.1
0.1
0.1
0.1
0.1
0.1
0.1
0.1
0.1
0.1
0.1
0.1
0.1
0.1
0.1
0.1
0.1
0.1
0.1
0.1
0.1
0.1
0.1
0.1
0.1
0.1
0.1
0.1
0.1
0.1
0.1
0.1
0.1
0.1
0.1
0.1
0.1
0.1
0.1
0.1
0.1
0.1
0.1
0.1
0.1
0.1
0.1
0.1
0.1
0.1
0.1
0.1
0.1
0.1
0.1
0.1
0.1
0.1
0.1
0.1
0.1
0.1
0.1
0.1
0.1
0.1
0.1
0.1
0.1
0.1
0.1
0.1
0.1
0.1
0.1
0.1
0.1
0.1
0.1
0.1
0.1
0.1
0.1
0.1
0.1
0.1
0.1
0.1
0.1
0.1
0.1
0.1
0.1
0.1
0.1
0.1
0.1
0.1
0.1
0.1
0.1
)
;

boundaryField
{
    left
    {
        type            zeroGradient;
    }
    right
    {
        type            zeroGradient;
    }
    empty
    {
        type            empty;
    }
}


// ************************************************************************* //
