/*--------------------------------*- C++ -*----------------------------------*\
| =========                 |                                                 |
| \\      /  F ield         | OpenFOAM: The Open Source CFD Toolbox           |
|  \\    /   O peration     | Version:  2106                                  |
|   \\  /    A nd           | Website:  www.openfoam.com                      |
|    \\/     M anipulation  |                                                 |
\*---------------------------------------------------------------------------*/
FoamFile
{
    version     2.0;
    format      ascii;
    arch        "LSB;label=32;scalar=64";
    class       volVectorField;
    location    "0.08";
    object      U;
}
// * * * * * * * * * * * * * * * * * * * * * * * * * * * * * * * * * * * * * //

dimensions      [0 1 -1 0 0 0 0];

internalField   nonuniform List<vector> 
800
(
(1.56157e-11 0 0)
(7.57444e-11 0 0)
(-6.18588e-11 0 0)
(-1.85981e-10 0 0)
(-1.78236e-10 0 0)
(-1.72474e-10 0 0)
(-1.8412e-10 0 0)
(-1.56394e-10 0 0)
(-1.63756e-10 0 0)
(-9.07846e-11 0 0)
(-1.84066e-12 0 0)
(5.94343e-11 0 0)
(6.46877e-11 0 0)
(-2.73181e-11 0 0)
(-6.79842e-11 0 0)
(-1.98563e-11 0 0)
(-6.99055e-11 0 0)
(-1.11834e-10 0 0)
(-7.37868e-11 0 0)
(-1.56402e-11 0 0)
(2.90799e-11 0 0)
(6.39466e-11 0 0)
(9.38396e-11 0 0)
(6.56186e-11 0 0)
(6.35381e-11 0 0)
(5.76426e-11 0 0)
(3.44796e-12 0 0)
(-6.90121e-11 0 0)
(-1.62341e-10 0 0)
(-1.91685e-10 0 0)
(-1.36655e-10 0 0)
(-1.38682e-10 0 0)
(-1.89387e-10 0 0)
(-1.94162e-10 0 0)
(-1.34202e-10 0 0)
(-1.02203e-10 0 0)
(-1.35017e-10 0 0)
(-1.55634e-10 0 0)
(-1.44946e-10 0 0)
(-1.33155e-10 0 0)
(-1.63718e-10 0 0)
(-1.39867e-10 0 0)
(-9.06484e-11 0 0)
(-8.5957e-11 0 0)
(-7.86644e-11 0 0)
(-1.10316e-10 0 0)
(-1.58315e-10 0 0)
(-1.6966e-10 0 0)
(-1.9085e-10 0 0)
(-1.35984e-10 0 0)
(-7.75755e-11 0 0)
(4.06929e-11 0 0)
(1.32957e-10 0 0)
(1.60847e-10 0 0)
(1.28943e-10 0 0)
(1.30911e-10 0 0)
(1.22236e-10 0 0)
(1.60578e-10 0 0)
(1.61942e-10 0 0)
(1.62899e-10 0 0)
(1.36482e-10 0 0)
(6.46282e-11 0 0)
(7.55827e-11 0 0)
(6.59527e-11 0 0)
(6.29037e-11 0 0)
(1.7505e-11 0 0)
(-8.7258e-12 0 0)
(4.68641e-11 0 0)
(9.57172e-11 0 0)
(1.11201e-10 0 0)
(1.05342e-10 0 0)
(4.80536e-11 0 0)
(-3.82746e-12 0 0)
(-1.15126e-10 0 0)
(-1.98861e-10 0 0)
(-2.55149e-10 0 0)
(-2.90197e-10 0 0)
(-2.47178e-10 0 0)
(-2.15549e-10 0 0)
(-1.74127e-10 0 0)
(-1.23704e-10 0 0)
(-5.39797e-11 0 0)
(-6.27253e-11 0 0)
(-3.41544e-11 0 0)
(1.95917e-11 0 0)
(-3.09095e-11 0 0)
(-5.76372e-11 0 0)
(-6.0969e-11 0 0)
(-2.40168e-11 0 0)
(3.4155e-12 0 0)
(7.04526e-11 0 0)
(1.14937e-10 0 0)
(9.97961e-11 0 0)
(3.40801e-11 0 0)
(-2.29464e-11 0 0)
(-1.00199e-10 0 0)
(-1.53877e-10 0 0)
(-1.22992e-10 0 0)
(-1.56174e-10 0 0)
(-1.73744e-10 0 0)
(-1.54175e-10 0 0)
(-1.16109e-10 0 0)
(-3.86053e-11 0 0)
(5.30895e-11 0 0)
(3.57599e-11 0 0)
(-3.43543e-11 0 0)
(-9.84628e-11 0 0)
(-1.28723e-10 0 0)
(-3.4567e-11 0 0)
(6.2558e-11 0 0)
(7.35205e-11 0 0)
(1.91136e-11 0 0)
(-1.04596e-10 0 0)
(-1.79389e-10 0 0)
(-1.14291e-10 0 0)
(-7.51297e-11 0 0)
(-1.99725e-11 0 0)
(5.41291e-11 0 0)
(7.13027e-11 0 0)
(1.6459e-11 0 0)
(5.79607e-12 0 0)
(-2.95601e-11 0 0)
(-3.07371e-11 0 0)
(-1.13202e-10 0 0)
(-1.38852e-10 0 0)
(-1.61633e-10 0 0)
(-1.71306e-10 0 0)
(-1.62471e-10 0 0)
(-1.78317e-10 0 0)
(-1.71744e-10 0 0)
(-1.66102e-10 0 0)
(-1.31319e-10 0 0)
(-3.95872e-11 0 0)
(-3.96732e-12 0 0)
(-5.66727e-12 0 0)
(2.10478e-11 0 0)
(8.71177e-11 0 0)
(1.56868e-10 0 0)
(1.61231e-10 0 0)
(1.32075e-10 0 0)
(6.10595e-11 0 0)
(-7.57571e-12 0 0)
(4.01277e-11 0 0)
(4.64244e-11 0 0)
(4.16685e-11 0 0)
(4.75413e-11 0 0)
(-1.12865e-12 0 0)
(-6.06499e-11 0 0)
(-1.00696e-10 0 0)
(-1.71383e-10 0 0)
(-1.93274e-10 0 0)
(-1.64049e-10 0 0)
(-1.31742e-10 0 0)
(-7.56233e-11 0 0)
(-2.42239e-11 0 0)
(-7.62542e-12 0 0)
(-5.52486e-11 0 0)
(-1.6466e-10 0 0)
(-2.63248e-10 0 0)
(-3.57999e-10 0 0)
(-3.24262e-10 0 0)
(-2.10155e-10 0 0)
(-1.15541e-10 0 0)
(-2.14215e-11 0 0)
(2.35162e-11 0 0)
(5.28951e-11 0 0)
(5.699e-11 0 0)
(2.18451e-11 0 0)
(7.20614e-12 0 0)
(1.43246e-11 0 0)
(4.31761e-11 0 0)
(3.28761e-11 0 0)
(4.24098e-11 0 0)
(9.98898e-11 0 0)
(1.47041e-10 0 0)
(1.48371e-10 0 0)
(5.84398e-11 0 0)
(-9.79835e-11 0 0)
(-1.5789e-10 0 0)
(-2.19607e-10 0 0)
(-2.51976e-10 0 0)
(-2.48598e-10 0 0)
(-1.83128e-10 0 0)
(-8.73028e-11 0 0)
(3.54286e-12 0 0)
(5.70431e-11 0 0)
(7.1543e-11 0 0)
(1.59599e-10 0 0)
(2.33053e-10 0 0)
(1.73037e-10 0 0)
(1.16892e-10 0 0)
(1.03488e-10 0 0)
(8.46757e-11 0 0)
(5.94862e-11 0 0)
(4.05166e-11 0 0)
(4.07548e-11 0 0)
(7.98134e-11 0 0)
(5.12477e-11 0 0)
(3.67281e-11 0 0)
(2.55928e-11 0 0)
(-1.27475e-11 0 0)
(-1.04774e-10 0 0)
(-1.3966e-10 0 0)
(-4.64222e-11 0 0)
(6.14634e-11 0 0)
(5.85934e-11 0 0)
(9.59368e-11 0 0)
(2.42777e-10 0 0)
(3.47539e-10 0 0)
(3.31618e-10 0 0)
(3.28692e-10 0 0)
(3.43232e-10 0 0)
(2.06324e-10 0 0)
(1.42143e-10 0 0)
(9.74662e-11 0 0)
(1.49107e-11 0 0)
(-7.36067e-11 0 0)
(-1.04493e-10 0 0)
(-1.43104e-10 0 0)
(-2.02162e-10 0 0)
(-1.87082e-10 0 0)
(-8.92194e-11 0 0)
(-2.15667e-11 0 0)
(4.41498e-11 0 0)
(7.30177e-11 0 0)
(2.41791e-11 0 0)
(2.50151e-11 0 0)
(2.56002e-11 0 0)
(-5.56987e-12 0 0)
(-1.04635e-11 0 0)
(4.68285e-11 0 0)
(1.59181e-10 0 0)
(1.65496e-10 0 0)
(1.65532e-10 0 0)
(1.33734e-10 0 0)
(5.15643e-11 0 0)
(6.05584e-12 0 0)
(3.5873e-11 0 0)
(9.19299e-11 0 0)
(1.97628e-10 0 0)
(2.90837e-10 0 0)
(3.93275e-10 0 0)
(4.3398e-10 0 0)
(4.64292e-10 0 0)
(4.39013e-10 0 0)
(4.04366e-10 0 0)
(4.30602e-10 0 0)
(4.19714e-10 0 0)
(3.25785e-10 0 0)
(2.57556e-10 0 0)
(1.83837e-10 0 0)
(9.92575e-11 0 0)
(5.59879e-11 0 0)
(8.0304e-11 0 0)
(5.85572e-11 0 0)
(4.34305e-11 0 0)
(6.29008e-11 0 0)
(1.07839e-10 0 0)
(1.35622e-10 0 0)
(1.60559e-10 0 0)
(1.57252e-10 0 0)
(1.55366e-10 0 0)
(1.70839e-10 0 0)
(2.12582e-10 0 0)
(2.11111e-10 0 0)
(1.9023e-10 0 0)
(1.93531e-10 0 0)
(1.49968e-10 0 0)
(8.61728e-11 0 0)
(1.10447e-10 0 0)
(5.48061e-11 0 0)
(-1.583e-11 0 0)
(-7.55055e-11 0 0)
(-1.06848e-10 0 0)
(-1.08205e-10 0 0)
(-1.20161e-10 0 0)
(-1.87444e-10 0 0)
(-2.44332e-10 0 0)
(-2.36748e-10 0 0)
(-2.30103e-10 0 0)
(-2.37243e-10 0 0)
(-1.89432e-10 0 0)
(-9.95778e-11 0 0)
(2.02512e-11 0 0)
(1.04479e-10 0 0)
(1.31543e-10 0 0)
(1.16699e-10 0 0)
(8.49961e-11 0 0)
(2.00366e-11 0 0)
(-1.785e-11 0 0)
(9.09662e-13 0 0)
(4.12705e-12 0 0)
(-4.23466e-12 0 0)
(-3.26752e-11 0 0)
(-4.16889e-11 0 0)
(-4.60966e-11 0 0)
(-1.06739e-10 0 0)
(-2.16677e-10 0 0)
(-3.41398e-10 0 0)
(-4.56044e-10 0 0)
(-5.78044e-10 0 0)
(-7.13298e-10 0 0)
(-7.79812e-10 0 0)
(-7.36454e-10 0 0)
(2.3708e-07 0 0)
(5.37376e-05 0 0)
(0.00148586 0 0)
(0.00938197 0 0)
(0.0243915 0 0)
(0.0404846 0 0)
(0.054702 0 0)
(0.0671616 0 0)
(0.0785521 0 0)
(0.0893771 0 0)
(0.0999186 0 0)
(0.110317 0 0)
(0.120641 0 0)
(0.13092 0 0)
(0.141171 0 0)
(0.151404 0 0)
(0.161622 0 0)
(0.171831 0 0)
(0.182032 0 0)
(0.192226 0 0)
(0.202417 0 0)
(0.212603 0 0)
(0.222787 0 0)
(0.232969 0 0)
(0.243149 0 0)
(0.253327 0 0)
(0.263505 0 0)
(0.273682 0 0)
(0.283859 0 0)
(0.294035 0 0)
(0.304212 0 0)
(0.314388 0 0)
(0.324566 0 0)
(0.334743 0 0)
(0.344922 0 0)
(0.355101 0 0)
(0.365281 0 0)
(0.375462 0 0)
(0.385645 0 0)
(0.395829 0 0)
(0.406014 0 0)
(0.416201 0 0)
(0.42639 0 0)
(0.43658 0 0)
(0.446773 0 0)
(0.456967 0 0)
(0.467164 0 0)
(0.477363 0 0)
(0.487565 0 0)
(0.497769 0 0)
(0.507976 0 0)
(0.518185 0 0)
(0.528398 0 0)
(0.538613 0 0)
(0.548831 0 0)
(0.559053 0 0)
(0.569278 0 0)
(0.579505 0 0)
(0.589737 0 0)
(0.599971 0 0)
(0.610209 0 0)
(0.62045 0 0)
(0.630695 0 0)
(0.640942 0 0)
(0.651193 0 0)
(0.661447 0 0)
(0.671704 0 0)
(0.681963 0 0)
(0.692226 0 0)
(0.70249 0 0)
(0.712757 0 0)
(0.723026 0 0)
(0.733297 0 0)
(0.743568 0 0)
(0.753841 0 0)
(0.764114 0 0)
(0.774387 0 0)
(0.784659 0 0)
(0.794931 0 0)
(0.805202 0 0)
(0.815471 0 0)
(0.825738 0 0)
(0.836003 0 0)
(0.846266 0 0)
(0.856526 0 0)
(0.866782 0 0)
(0.87703 0 0)
(0.887257 0 0)
(0.897409 0 0)
(0.907328 0 0)
(0.916589 0 0)
(0.924292 0 0)
(0.929198 0 0)
(0.930908 0 0)
(0.930863 0 0)
(0.929334 0 0)
(0.928825 0 0)
(0.929229 0 0)
(0.929937 0 0)
(0.930119 0 0)
(0.930129 0 0)
(0.930033 0 0)
(0.929937 0 0)
(0.929889 0 0)
(0.929817 0 0)
(0.929682 0 0)
(0.929574 0 0)
(0.929519 0 0)
(0.92947 0 0)
(0.929362 0 0)
(0.929202 0 0)
(0.92908 0 0)
(0.929006 0 0)
(0.928953 0 0)
(0.928921 0 0)
(0.928913 0 0)
(0.928912 0 0)
(0.928888 0 0)
(0.928784 0 0)
(0.928683 0 0)
(0.928626 0 0)
(0.928582 0 0)
(0.92854 0 0)
(0.928517 0 0)
(0.92851 0 0)
(0.928495 0 0)
(0.928439 0 0)
(0.928381 0 0)
(0.928372 0 0)
(0.928389 0 0)
(0.928424 0 0)
(0.928472 0 0)
(0.928572 0 0)
(0.928673 0 0)
(0.928719 0 0)
(0.928731 0 0)
(0.928738 0 0)
(0.928772 0 0)
(0.928795 0 0)
(0.928794 0 0)
(0.928801 0 0)
(0.928852 0 0)
(0.928893 0 0)
(0.928885 0 0)
(0.928838 0 0)
(0.928836 0 0)
(0.928844 0 0)
(0.928815 0 0)
(0.928775 0 0)
(0.928772 0 0)
(0.928799 0 0)
(0.928802 0 0)
(0.928726 0 0)
(0.92868 0 0)
(0.928694 0 0)
(0.928685 0 0)
(0.928649 0 0)
(0.928627 0 0)
(0.928653 0 0)
(0.928669 0 0)
(0.928593 0 0)
(0.928513 0 0)
(0.928519 0 0)
(0.92852 0 0)
(0.928505 0 0)
(0.928511 0 0)
(0.928581 0 0)
(0.928746 0 0)
(0.928941 0 0)
(0.929349 0 0)
(0.930023 0 0)
(0.92972 0 0)
(0.929668 0 0)
(0.932209 0 0)
(0.929823 0 0)
(0.92703 0 0)
(0.926789 0 0)
(0.926704 0 0)
(0.9268 0 0)
(0.927387 0 0)
(0.9292 0 0)
(0.931697 0 0)
(0.931965 0 0)
(0.93123 0 0)
(0.930132 0 0)
(0.928361 0 0)
(0.92673 0 0)
(0.926268 0 0)
(0.926281 0 0)
(0.926724 0 0)
(0.928329 0 0)
(0.930477 0 0)
(0.931216 0 0)
(0.931393 0 0)
(0.931148 0 0)
(0.929824 0 0)
(0.927459 0 0)
(0.926186 0 0)
(0.926134 0 0)
(0.926291 0 0)
(0.927019 0 0)
(0.928715 0 0)
(0.930567 0 0)
(0.931162 0 0)
(0.930985 0 0)
(0.930503 0 0)
(0.92918 0 0)
(0.927126 0 0)
(0.926271 0 0)
(0.926219 0 0)
(0.926431 0 0)
(0.927254 0 0)
(0.92913 0 0)
(0.930636 0 0)
(0.930929 0 0)
(0.930893 0 0)
(0.93039 0 0)
(0.928806 0 0)
(0.926978 0 0)
(0.926511 0 0)
(0.926475 0 0)
(0.926755 0 0)
(0.927807 0 0)
(0.929748 0 0)
(0.930852 0 0)
(0.930916 0 0)
(0.930769 0 0)
(0.930116 0 0)
(0.928515 0 0)
(0.926982 0 0)
(0.92665 0 0)
(0.926867 0 0)
(0.927752 0 0)
(0.928352 0 0)
(0.927403 0 0)
(0.909922 0 0)
(0.741816 0 0)
(0.221104 0 0)
(0.00443957 0 0)
(2.362e-06 0 0)
(1.1022e-11 0 0)
(-4.83595e-11 0 0)
(-3.50686e-11 0 0)
(-8.83953e-11 0 0)
(-9.18828e-11 0 0)
(-9.21256e-11 0 0)
(-6.96412e-11 0 0)
(-7.29895e-11 0 0)
(-1.15014e-10 0 0)
(-1.04559e-10 0 0)
(-4.63182e-11 0 0)
(-2.99346e-11 0 0)
(-5.84491e-11 0 0)
(-9.42502e-11 0 0)
(-5.79614e-11 0 0)
(1.86366e-11 0 0)
(4.89086e-11 0 0)
(7.02608e-11 0 0)
(6.86818e-11 0 0)
(4.94076e-13 0 0)
(-1.00146e-10 0 0)
(-1.83623e-10 0 0)
(-2.30392e-10 0 0)
(-2.44815e-10 0 0)
(-2.17264e-10 0 0)
(-2.26617e-10 0 0)
(-1.74965e-10 0 0)
(-1.02276e-10 0 0)
(-6.92203e-11 0 0)
(4.77745e-12 0 0)
(2.26643e-11 0 0)
(6.00765e-11 0 0)
(-3.49618e-11 0 0)
(-6.40197e-11 0 0)
(-1.2886e-10 0 0)
(-1.58656e-10 0 0)
(-1.67671e-10 0 0)
(-1.80076e-10 0 0)
(-1.65095e-10 0 0)
(-9.95674e-11 0 0)
(-8.04087e-11 0 0)
(-1.0717e-10 0 0)
(-1.42981e-10 0 0)
(-1.84497e-10 0 0)
(-1.83218e-10 0 0)
(-1.48701e-10 0 0)
(-1.63891e-10 0 0)
(-1.22476e-10 0 0)
(-4.70951e-11 0 0)
(3.58842e-11 0 0)
(-2.03627e-11 0 0)
(-1.27554e-10 0 0)
(-2.25381e-10 0 0)
(-2.50641e-10 0 0)
(-2.55894e-10 0 0)
(-2.30085e-10 0 0)
(-1.58964e-10 0 0)
(-1.68192e-10 0 0)
(-1.89837e-10 0 0)
(-1.48624e-10 0 0)
(-1.40418e-10 0 0)
(-1.18023e-10 0 0)
(-4.8249e-11 0 0)
(-2.25579e-11 0 0)
(4.88977e-11 0 0)
(5.22772e-11 0 0)
(2.37036e-11 0 0)
(-4.40809e-11 0 0)
(-1.28344e-10 0 0)
(-1.17026e-10 0 0)
(-7.22149e-11 0 0)
(-6.90843e-11 0 0)
(-4.20387e-12 0 0)
(4.52107e-11 0 0)
(9.42373e-11 0 0)
(1.56337e-10 0 0)
(2.27261e-10 0 0)
(2.5861e-10 0 0)
(2.59278e-10 0 0)
(2.38154e-10 0 0)
(1.93609e-10 0 0)
(2.19686e-10 0 0)
(1.98436e-10 0 0)
(1.14424e-10 0 0)
(1.01927e-10 0 0)
(9.04122e-11 0 0)
(5.32304e-11 0 0)
(1.66313e-11 0 0)
(3.29161e-11 0 0)
(6.0702e-11 0 0)
(6.82247e-11 0 0)
(6.66637e-11 0 0)
(-3.85388e-12 0 0)
(-1.04369e-10 0 0)
(-1.13674e-10 0 0)
(-8.4172e-11 0 0)
(-8.9009e-11 0 0)
(-1.32301e-10 0 0)
(-1.43392e-10 0 0)
(-1.18437e-10 0 0)
(-8.90441e-11 0 0)
(-4.75154e-11 0 0)
(-3.03719e-11 0 0)
(-5.65985e-11 0 0)
(-1.04425e-10 0 0)
(-1.5158e-10 0 0)
(-6.83377e-11 0 0)
(5.59174e-11 0 0)
(1.3512e-10 0 0)
(6.67368e-11 0 0)
(7.69956e-11 0 0)
(9.57425e-11 0 0)
(7.09454e-11 0 0)
(5.73373e-11 0 0)
(2.24322e-11 0 0)
(-3.55382e-11 0 0)
(-5.6084e-12 0 0)
(-2.30457e-11 0 0)
(-3.56791e-11 0 0)
(-8.29308e-11 0 0)
(-5.81737e-11 0 0)
(-7.53818e-11 0 0)
(-8.56505e-11 0 0)
(-9.15871e-11 0 0)
(-8.7575e-11 0 0)
(-1.14415e-10 0 0)
(-1.52565e-10 0 0)
(-1.75048e-10 0 0)
(-2.03905e-10 0 0)
(-1.71561e-10 0 0)
(-1.7051e-10 0 0)
(-1.75799e-10 0 0)
(-1.35947e-10 0 0)
(-8.09861e-11 0 0)
(-2.83314e-12 0 0)
(8.57108e-12 0 0)
(1.28312e-11 0 0)
(8.71257e-12 0 0)
(-3.78603e-11 0 0)
(-6.96811e-11 0 0)
(-5.5001e-11 0 0)
(-7.14069e-11 0 0)
(-1.04221e-10 0 0)
(-8.41387e-11 0 0)
(-6.24439e-11 0 0)
(-5.4727e-11 0 0)
(-5.43808e-11 0 0)
(-8.26846e-12 0 0)
(8.76362e-11 0 0)
(1.54583e-10 0 0)
(1.59769e-10 0 0)
(1.66363e-10 0 0)
(1.53536e-10 0 0)
(1.10265e-10 0 0)
(9.53098e-11 0 0)
(6.91923e-11 0 0)
(4.13311e-11 0 0)
(2.05522e-11 0 0)
(3.66309e-11 0 0)
(3.50243e-11 0 0)
(1.88002e-11 0 0)
(1.16081e-11 0 0)
(3.67523e-11 0 0)
(8.43014e-11 0 0)
(2.09796e-10 0 0)
(1.16913e-10 0 0)
(7.20838e-11 0 0)
(9.65972e-12 0 0)
(-3.05992e-11 0 0)
(-2.00672e-11 0 0)
(3.67479e-11 0 0)
(2.91762e-11 0 0)
(-4.65474e-12 0 0)
(1.47335e-11 0 0)
(8.5766e-11 0 0)
(1.70046e-10 0 0)
(2.01049e-10 0 0)
(2.00874e-10 0 0)
(1.83486e-10 0 0)
(1.32434e-10 0 0)
(6.09474e-11 0 0)
(-2.97593e-11 0 0)
(-1.66927e-10 0 0)
(-1.93929e-10 0 0)
(-1.27149e-10 0 0)
(-1.25462e-10 0 0)
(-9.29521e-11 0 0)
(-8.37361e-11 0 0)
(-5.48263e-11 0 0)
(-2.59913e-11 0 0)
(-2.10251e-11 0 0)
(2.44291e-12 0 0)
(-2.98554e-11 0 0)
(-1.55989e-11 0 0)
(1.05141e-10 0 0)
(2.83273e-10 0 0)
(3.80726e-10 0 0)
(3.35062e-10 0 0)
(2.81514e-10 0 0)
(2.90619e-10 0 0)
(2.60245e-10 0 0)
(2.3786e-10 0 0)
(2.17621e-10 0 0)
(1.92681e-10 0 0)
(1.81352e-10 0 0)
(1.06085e-10 0 0)
(6.3683e-11 0 0)
(4.77943e-11 0 0)
(8.46203e-11 0 0)
(1.2785e-10 0 0)
(1.35228e-10 0 0)
(1.33486e-10 0 0)
(6.9962e-11 0 0)
(3.2018e-11 0 0)
(4.50699e-11 0 0)
(-1.10466e-11 0 0)
(-4.88954e-11 0 0)
(-6.1653e-11 0 0)
(-6.75112e-11 0 0)
(-3.55161e-11 0 0)
(-2.71815e-11 0 0)
(-3.86427e-11 0 0)
(-5.31122e-11 0 0)
(-9.98003e-11 0 0)
(-6.90033e-11 0 0)
(-9.39842e-11 0 0)
(-5.48014e-11 0 0)
(-1.05846e-11 0 0)
(-4.66928e-12 0 0)
(6.91089e-12 0 0)
(-1.6756e-11 0 0)
(2.98361e-12 0 0)
(6.55841e-11 0 0)
(2.04736e-11 0 0)
(3.68565e-11 0 0)
(3.97265e-11 0 0)
(3.54263e-11 0 0)
(-4.24228e-11 0 0)
(-3.06273e-11 0 0)
(-6.75827e-11 0 0)
(-7.06853e-11 0 0)
(-4.40747e-11 0 0)
(3.25195e-12 0 0)
(-1.00565e-11 0 0)
(-5.96273e-11 0 0)
(-7.81229e-11 0 0)
(-4.2034e-11 0 0)
(-7.6622e-11 0 0)
(-1.76553e-10 0 0)
(-2.49681e-10 0 0)
(-2.32315e-10 0 0)
(-1.91601e-10 0 0)
(-2.02642e-10 0 0)
(-1.56585e-10 0 0)
(-6.3263e-11 0 0)
(-4.42628e-12 0 0)
)
;

boundaryField
{
    left
    {
        type            noSlip;
    }
    right
    {
        type            noSlip;
    }
    empty
    {
        type            empty;
    }
}


// ************************************************************************* //
