/*--------------------------------*- C++ -*----------------------------------*\
| =========                 |                                                 |
| \\      /  F ield         | OpenFOAM: The Open Source CFD Toolbox           |
|  \\    /   O peration     | Version:  2106                                  |
|   \\  /    A nd           | Website:  www.openfoam.com                      |
|    \\/     M anipulation  |                                                 |
\*---------------------------------------------------------------------------*/
FoamFile
{
    version     2.0;
    format      ascii;
    arch        "LSB;label=32;scalar=64";
    class       volScalarField;
    location    "0.36";
    object      p;
}
// * * * * * * * * * * * * * * * * * * * * * * * * * * * * * * * * * * * * * //

dimensions      [0 2 -2 0 0 0 0];

internalField   nonuniform List<scalar> 
11200
(
150.135879449
147.207277505
146.093425999
145.566093763
145.198762797
144.903982974
144.64233758
144.393797387
144.149277118
143.904207088
143.65589012
143.402571496
143.143019184
142.876297581
142.601639806
142.318372435
142.025869653
141.723525481
141.410741115
141.086928412
140.75146364
140.403697793
140.042972542
139.66862005
139.279954758
138.876275367
138.45686568
138.020995274
137.56792024
137.096883811
136.607116942
136.097838818
135.568256984
135.017567553
134.444955889
133.84959778
133.23065927
132.587296881
131.918658023
131.223881418
130.502097409
129.752428174
128.973987918
128.165882951
127.327211636
126.45706416
125.554522082
124.618657585
123.648532375
122.643196114
121.601684293
120.523015388
119.406187138
118.250171733
117.053909648
115.816301808
114.536199657
113.212392647
111.843592452
110.428413121
108.96534605
107.452728328
105.888702592
104.271168265
102.597715348
100.865538626
99.0713276211
97.2111222984
95.2801185024
93.2724014765
91.1805820751
88.9953006857
86.7043586723
84.2915696283
81.7348475688
79.0025321869
76.0470232207
72.7957432162
69.0949612818
64.3316555072
148.342837632
146.984663312
146.193691169
145.693675835
145.302686335
144.97880232
144.694279503
144.429675372
144.174185408
143.921661176
143.668275334
143.411514262
143.149640889
142.881378725
142.605727316
142.321851832
142.029014873
141.726533618
141.413749633
141.090001077
140.754637757
140.406984199
140.046396716
139.672207177
139.283719595
138.880226948
138.461010203
138.025337111
137.572462471
137.101628536
136.612065264
136.102990285
135.573609272
135.023121991
134.450715755
133.855566367
133.236839602
132.593691938
131.925270803
131.230714993
130.509154996
129.759713208
128.981504148
128.173634557
127.335203367
126.465301509
125.563011489
124.627406703
123.65755038
122.652494093
121.611275713
120.532916679
119.416418415
118.260757688
117.064880663
115.827695325
114.548061884
113.224780659
111.856576818
110.442081313
108.97980706
107.468118754
105.905192685
104.288965867
102.61707056
100.886766315
99.0948375853
97.2374469393
95.3099549637
93.3066769323
91.2205439802
89.0425997733
86.7612968035
84.3614991959
81.8228117428
79.1167260882
76.2024440823
73.0221320442
69.4730008613
65.3601989382
147.347647415
146.693446777
146.141090386
145.703471637
145.331846598
145.00974342
144.720641919
144.450406201
144.189941233
143.933458122
143.677071853
143.418100696
143.154632581
142.885240511
142.608803393
142.324392595
142.031198481
141.728482463
141.415546258
141.09171302
140.756320689
140.408729699
140.048196053
139.674066099
139.285647756
138.882231447
138.463095833
138.027507583
137.574721193
137.103979141
136.614512262
136.10554044
135.576272758
135.025901809
134.453609826
133.858574966
133.239964162
132.596934412
131.928633991
131.234202533
130.512771382
129.763463862
128.985395591
128.17767461
127.339401427
126.469668882
125.567561817
124.632156478
123.662519586
122.657706998
121.616761864
120.538712088
119.422567003
118.267313052
117.071908224
115.835274954
114.556291158
113.233778982
111.866490557
110.453090004
108.992130375
107.482024802
105.921009233
104.307115186
102.638105279
100.911385551
99.123914377
97.2720932543
95.3516081066
93.3572204328
91.2824806947
89.1193261861
86.8576621821
84.4845730325
81.9833380774
79.3320975936
76.5028787616
73.4640676323
70.1796887315
66.6267237849
146.797886258
146.434504694
146.034605985
145.665614457
145.32799629
145.019892012
144.734526509
144.463820104
144.201445409
143.942775429
143.684392108
143.42376388
143.158990887
142.888605838
142.611432641
142.326488764
142.032917886
141.729943821
141.416839447
141.092904861
140.757449145
140.409782148
140.04926268
139.6751676
139.2867862
138.883410776
138.464319744
138.028778539
137.576040532
137.105347192
136.615928187
136.107001598
135.577774775
135.027446033
134.455205202
133.860226768
133.241678614
132.598718511
131.93049375
131.23614442
130.514802666
129.765592825
128.987631955
128.180029962
127.341889688
126.472306872
125.570369921
124.635159453
123.665747541
122.661196546
121.620557448
120.542867708
119.427148364
118.272400205
117.077598884
115.841688707
114.563574672
113.242112155
111.876094245
110.464235368
109.005154331
107.497352974
105.939170648
104.328747969
102.66398359
100.942478902
99.1614586433
97.3176707902
95.4072623371
93.4256234658
91.3671972687
89.2252544485
86.9915635675
84.6560830077
82.2067242046
79.6293894781
76.9093341812
74.0368520484
71.0155429809
67.8825889832
146.46383837
146.232042665
145.930629572
145.619651375
145.314810298
145.022784945
144.743807076
144.474678438
144.211715415
143.951627857
143.691655334
143.429560412
143.16355055
142.892176656
142.614242025
142.328729681
142.034746991
141.731484752
141.418187662
141.094133133
140.758616306
140.410940877
140.050410517
139.676314646
139.287956125
138.884618628
138.465575342
138.030089284
137.577412484
137.106785851
136.617439139
136.10859111
135.579449613
135.029211304
134.457062278
133.862178833
133.243726449
132.600863051
131.93273928
131.238495635
130.517266764
129.76817933
128.990352835
128.182899963
127.344926822
126.475533012
125.573811574
124.638848735
123.669723342
122.665505899
121.625257966
120.548029658
119.432857398
118.278760746
117.084738129
115.849761034
114.572767053
113.25265247
111.888259569
110.47836902
109.021678108
107.516775168
105.9621229
104.356026717
102.696593007
100.98167986
99.2088398096
97.3752509875
95.4776339392
93.5121545371
91.4743161419
89.3588543104
87.1596607805
84.8698170806
82.4819027525
79.9889089747
77.3866396844
74.679536845
71.8889607544
69.0656096322
146.260445946
146.084543683
145.843348286
145.576021473
145.298833066
145.022192946
144.750501063
144.483996893
144.221228882
143.960216952
143.698926185
143.435489521
143.168281484
142.895911233
142.617185868
142.331067686
142.036634647
141.733047364
141.419523116
141.095316124
140.759703011
140.411971919
140.051413461
139.677317919
139.288974728
138.885663139
138.46665369
138.031207352
137.578574653
137.107995249
136.618697909
136.109900559
135.580810482
135.030624464
134.458529236
133.863702121
133.24531165
132.602517575
131.93447117
131.240316814
130.51919002
129.770218162
128.992522821
128.185219288
127.347417062
126.478220287
125.576727635
124.642032199
123.673221269
122.669375901
121.629569384
120.552866609
119.438322047
118.28497727
117.091857832
115.857969648
114.582294512
113.263779799
111.901335012
110.493810266
109.039990005
107.538581831
105.98820221
104.387335034
102.734313261
101.027287088
99.2641857045
97.4426755266
95.560116711
93.6135235609
91.5995400307
89.5144546261
87.3543011802
85.1151386082
82.7936821947
80.3885804984
77.9029012881
75.3487983244
72.7532190894
70.1632620506
146.137329227
145.981721427
145.775419075
145.538856134
145.283379871
145.0200991
144.755484389
144.49197408
144.229838942
143.968251137
143.705876635
143.441238925
143.17290823
142.899576002
142.620070067
142.333342851
142.038449431
141.734523985
141.420758509
141.096385109
140.760661978
140.412862706
140.052268474
139.678161748
139.289823678
138.886528542
138.467544023
138.03212891
137.579532214
137.108992735
136.619738849
136.110988461
135.581949105
135.031818308
134.459784007
133.865024432
133.246708536
132.60399688
131.936041666
131.241986494
130.520966763
129.772113669
128.994553216
128.187404955
127.349783184
126.480797349
125.579552513
124.645149586
123.676685342
122.673252203
121.633937601
120.5578238
119.44398648
118.29149304
117.099400242
115.866750822
114.592569153
113.275861014
111.915599781
110.510726046
109.060138541
107.562677277
106.017113086
104.422133445
102.776326607
101.078163397
99.3259795449
97.5179613251
95.6521391203
93.7263985942
91.7385255626
89.6863141249
87.5677850076
85.3816056644
83.1278449524
80.8092605354
78.4334013188
76.0158652828
73.5835270608
71.1757436555
146.063249613
145.913239363
145.726483326
145.510377344
145.270670518
145.017848371
144.759210228
144.498470875
144.237102878
143.97517984
143.711960899
143.446322623
143.177024495
142.902845271
142.622641437
142.335363152
142.040048927
141.73581144
141.421821155
141.097290912
140.761462751
140.413597343
140.05296575
139.678842418
139.290503635
138.887218697
138.468252527
138.032861867
137.580294372
137.109788044
136.620570864
136.111860668
135.582865173
135.032782153
134.460799708
133.866096553
133.247842474
132.605198504
131.937317812
131.243346883
130.52242729
129.773692389
128.996268889
128.189279858
127.351844293
126.483077497
125.582091638
124.64799621
123.679898379
122.6769033
121.638114404
120.562632697
119.449556573
118.297981163
117.106997262
115.875689995
114.603136682
113.288403446
111.930542836
110.528585847
109.08154136
107.588389926
106.048077113
104.459506066
102.821532407
101.132960761
99.3925456688
97.5990012945
95.7510262624
93.8473557029
91.8868573351
89.8687013876
87.7926421463
85.6594919272
83.4718641729
81.2352922599
78.9598124175
76.6620290671
74.3666210899
72.1055963049
146.02097329
145.871525521
145.695109658
145.491371093
145.261837997
145.016129119
144.761768541
144.503129456
144.242421845
143.980326687
143.716528078
143.450168147
143.180155361
142.905341069
142.624608532
142.33690956
142.041272125
141.736793699
141.422628948
141.097976316
140.762065651
140.414147737
140.053485927
139.67934964
139.291007712
138.887729439
138.468776641
138.033404323
137.580859167
137.110378617
136.621190387
136.11251231
135.583552316
135.033508568
134.461569733
133.866915342
133.248716279
132.606135348
131.938328103
131.244443168
130.523620872
129.77499817
128.997706806
128.190874244
127.35362455
126.485079232
125.584358039
124.650579708
123.682862675
122.680325713
121.64208849
120.567272112
119.454999516
118.304395661
117.114587485
115.88470359
114.613873339
113.301229351
111.945901765
110.547021968
109.103718535
107.615117842
106.080344082
104.498520477
102.86877394
101.190244142
99.4621004804
97.6835717578
95.8539950172
93.9728974754
92.0401243806
90.0560426337
88.0218473536
85.940029951
83.8150367717
81.6541630499
79.4686588076
77.2749353497
75.0950360942
72.9551397183
146.001696871
145.851818941
145.679855763
145.481920033
145.257358382
145.015238922
144.763103313
144.505593818
144.245265995
143.983103967
143.719012458
143.452275721
143.181884157
142.906730285
142.625713442
142.337787441
142.041975236
141.737366455
141.423107416
141.098388866
140.762434089
140.414488533
140.053811308
139.679668533
139.291327697
138.888055375
138.469112452
138.033753217
137.581223931
137.110761917
136.621594875
136.112940839
135.584008113
135.033995409
134.462092135
133.867478781
133.249327398
132.606802121
131.939059665
131.245249954
130.524517802
129.776002546
128.998839206
128.192159547
127.355092982
126.486767522
125.586310792
124.652851073
123.685518386
122.683445588
121.645769487
120.571631972
119.460181175
118.310572677
117.121970717
115.893549458
114.624494133
113.314002793
111.961288266
110.565581139
109.126129648
107.642207248
106.113117558
104.538202717
102.916856811
101.248545603
99.5328363431
97.76944249
95.958289334
94.0996145328
92.1941103095
90.2431459568
88.2490614894
86.2156104241
84.1485004045
82.0560762268
79.9500611005
77.8462090111
75.764209423
73.7259860973
146.001699452
145.851834999
145.679882767
145.481956267
145.257403075
145.01529124
144.763162331
144.505658709
144.245336059
143.983178628
143.719091252
143.452358288
143.18197023
142.906819679
142.625806046
142.337883209
142.042074173
141.737468619
141.423212917
141.098497867
140.762546817
140.41460529
140.053932487
139.679794647
139.291459439
138.888193475
138.469257829
138.033907007
137.58138752
137.110936852
136.621783172
136.113144953
135.584231019
135.034240716
134.462364215
133.867782919
133.249669976
132.607190881
131.939504171
131.245762156
130.525111722
129.776695206
128.99965137
128.193116464
127.356225316
126.488112506
125.587913632
124.654766655
123.687813343
122.686200805
121.649083143
120.575623223
119.464994637
118.316383866
117.128992605
115.902040264
114.634767353
113.32643743
111.976345406
110.583821946
109.148232826
107.6689962
106.145590999
104.577571317
102.964587136
101.306411199
99.6029763323
97.8544320216
96.061223888
94.224202105
92.3447958773
90.4253062745
88.4688464206
86.4800386041
84.465398416
82.4338272334
80.3971107868
78.3702664284
76.3711962611
74.4189929438
146.020981089
145.871574069
145.695191274
145.491480541
145.261972936
145.016286843
144.76194624
144.503324662
144.242632477
143.980551024
143.716764738
143.450416059
143.180413734
142.905609355
142.6248864
142.337196871
142.041568905
141.73710013
141.422945361
141.098303199
140.762403681
140.414497808
140.05384919
139.67972765
139.291402445
138.888143076
138.469211894
138.033864502
137.581348302
137.110901581
136.62175314
136.113122093
135.584217929
135.034240725
134.462381484
133.867822588
133.249738351
132.607295669
131.939654748
131.24596991
130.52539049
129.77706184
129.000126375
128.193724754
127.356997153
126.489084639
125.589130681
124.656282791
123.689694315
122.688526402
121.65195018
120.579149153
119.469321917
118.321685264
117.13547765
115.909963014
114.644436074
113.338225788
111.990705159
110.601296802
109.169487835
107.694831561
106.176971822
104.615660455
103.010782781
101.362394681
99.6707824841
97.9365308701
96.1605283609
94.3441504337
92.4893735681
90.598881768
88.6766523557
86.7279431393
84.7597453245
82.7812118988
80.8040157559
78.8425610455
76.913564216
75.0344649773
146.063262814
145.913321524
145.726621203
145.510561846
145.270897539
145.018113226
144.759508148
144.498797716
144.237455165
143.975554716
143.712356079
143.446736343
143.177455455
142.903292578
142.623104555
142.33584186
142.040543285
141.736321762
141.422347997
141.097835097
140.762025426
140.41418
140.053570217
139.679471336
139.291159881
138.887906031
138.468975444
138.033625806
137.581105949
137.110655295
136.621503551
136.112870641
135.583966817
135.03399294
134.462140866
133.867593954
133.249527667
132.607110262
131.939503574
131.245863885
130.525342917
129.777088901
129.000247761
128.193964412
127.357384188
126.489654414
125.589926144
124.657356077
123.691108703
122.690358672
121.654293468
120.582116411
119.47305008
118.326340264
117.141260499
115.917117229
114.653256277
113.349069098
112.004002276
110.617569118
109.189360194
107.71906289
106.206477034
104.65154249
103.05437347
101.415283911
99.7348281892
98.0138655236
96.25371668
94.4561960157
92.6237583437
90.759665082
88.8682248217
86.9550393196
85.0273269993
83.0942596122
81.1672775601
79.2603265285
77.3895381878
75.5718260572
146.137348202
145.981839344
145.775616285
145.539119088
145.283702376
145.020474283
144.755905397
144.492435045
144.230334993
143.968778299
143.706431751
143.44181957
143.17351262
142.900202915
142.620718775
142.334013055
142.039141214
141.735237772
141.42149505
141.097145509
140.761447782
140.413676006
140.05311192
139.679038756
139.290738274
138.887485824
138.468550161
138.033191351
137.580660006
137.110196905
136.62103282
136.11238857
135.583475221
135.033494422
134.461638864
133.867092833
133.249032866
132.606628516
131.93904318
131.245435025
130.524958031
129.776763136
128.999999541
128.193816138
127.357363089
126.489793579
125.590265767
124.657944966
123.692006095
122.691636437
121.656038769
120.584434931
119.476069907
118.330216542
117.14618106
115.923309506
114.660995141
113.358687295
112.015902262
110.632234824
109.207376018
107.741129991
106.233435571
104.684392667
103.094293135
101.463676172
99.7933765026
98.0845773266
96.3388900047
94.5584564446
92.7460747264
90.9053446328
89.0408475584
87.1583574436
85.2651032878
83.3700685059
81.4843321022
79.6214627973
77.797470476
76.0297635597
146.26047136
146.084701058
145.843610021
145.576368652
145.299256925
145.02268411
144.751050451
144.484596878
144.221873219
143.960900591
143.699645149
143.436240771
143.169062797
142.896721093
142.61802337
142.331932448
142.037526731
141.7339672
141.42047146
141.096294045
140.76071185
140.413013614
140.052492492
139.67844014
139.290144735
138.886886686
138.467938179
138.032561833
137.580010165
137.109525372
136.620339332
136.111673766
135.582740546
135.032742106
134.460871946
133.866315211
133.248249373
132.605845096
131.938267138
131.244675364
130.524225853
129.776072088
128.999366327
128.193261128
127.356911059
126.489474624
125.590116418
124.658009557
123.692338414
122.692301715
121.657116072
120.586020057
119.478278882
118.333189761
117.150088312
115.92835613
114.667429276
113.366808591
112.026071927
110.644888641
109.223036585
107.760422648
106.257108232
104.7133398
103.129584046
101.506569523
99.845339392
98.1473151057
96.4143714162
94.6489213832
92.8540199819
91.0334843721
89.1920380898
87.3354716829
85.4708461191
83.6067546838
81.7537113663
79.9247962903
78.1360398748
76.4061153229
146.463870911
146.232244361
145.930962317
145.62008978
145.31534234
145.023398325
144.744490338
144.475422196
144.212512115
143.952471473
143.692541168
143.430484914
143.164511168
142.89317171
142.615270602
142.329791534
142.035842416
141.73261442
141.419352417
141.095334039
140.759854924
140.412218365
140.051728923
139.677687348
139.289387062
138.886113543
138.467142425
138.031738796
137.579156972
137.10864047
136.619422176
136.11072463
135.581760448
135.031732798
134.459835949
133.86525593
133.247171216
132.604753569
131.937168949
131.243578542
130.523139987
129.775008804
128.998339839
128.192288837
127.35601427
126.488679377
125.589454469
124.657519539
123.692067251
122.692306367
121.657465672
120.586798444
119.479587659
118.335151969
117.152852846
115.932102886
114.672374541
113.373212815
112.034248636
110.65521452
109.235963743
107.776492746
106.276967754
104.737756411
103.159465164
101.542983543
99.889534982
98.2007358806
96.47866502
94.7259401759
92.945803039
91.1422112739
89.3199390047
87.4846831571
85.643195095
83.8034688332
81.9751256902
80.1703199237
78.4045670418
76.6977220429
146.797925954
146.434754387
146.035012255
145.666144476
145.328634083
145.020621875
144.735334502
144.464695138
144.202378716
143.943760114
143.685422867
143.42483677
143.160103164
142.889755846
142.612619764
142.327713427
142.03418157
141.731248991
141.418189079
141.094302819
140.758904543
140.411310678
140.050837181
139.676791373
139.288473072
138.88517205
138.466167041
138.030725418
137.578103045
137.10754449
136.618283443
136.109543101
135.580536579
135.030467459
134.458530444
133.863912183
133.245792066
132.60334286
131.935731693
131.242121388
130.521671614
129.773539461
128.996881913
128.190857345
127.354627377
126.487359059
125.588227342
124.656417888
123.691130313
122.691581751
121.6570108
120.586682702
119.479894929
118.335983614
117.154331203
115.934375623
114.675621376
113.377650677
112.040138256
110.662868885
109.245757638
107.788873615
106.292467962
104.757006731
103.183209082
101.572091683
99.925019389
98.2437621327
96.5305575857
94.7881779682
93.0199990611
91.2300674041
89.4231592035
87.6048259035
85.7814318365
83.9601941035
82.149415311
80.3594768517
78.6035943284
76.9004208497
147.347699091
146.693758631
146.141580204
145.704098601
145.332591051
145.010586376
144.721567221
144.451401293
144.190996292
143.934565434
143.678225433
143.419295977
143.155866162
142.886509972
142.610107184
142.325730078
142.032570283
141.729891343
141.416997357
141.093212889
140.757869843
140.410297965
140.049818317
139.675750698
139.287399675
138.884058265
138.465007743
138.029517332
137.576844382
137.106234448
136.616921946
136.108130697
135.579074392
135.028957165
134.456974224
133.862312358
133.244150089
132.60166143
131.934014432
131.24037247
130.519895766
129.771743586
128.995074826
128.189049988
127.352833265
126.485594808
125.586513278
124.65477876
123.689596054
122.690188597
121.655803131
120.585714481
119.479231557
118.335704257
117.154531548
115.93517082
114.677148692
113.380075589
112.043659833
110.667725885
109.252235711
107.79731373
106.303275939
104.77066369
103.200282463
101.593246023
99.9510260026
98.275506201
96.5690398509
94.8345127702
93.0753984729
91.2958068856
89.500510935
87.6949395317
85.8851099518
84.0774101716
82.2785010344
80.4959421051
78.7368477196
77.0099135431
148.342936706
146.985120629
146.194373505
145.694530388
145.303690005
144.979934336
144.695522864
144.431017001
144.175615091
143.923170855
143.669858634
143.41316608
143.151356981
142.883155297
142.607560621
142.32373778
142.030948509
141.728508299
141.415759927
141.092054759
140.756733311
140.409146123
140.048641263
139.674535369
139.286136772
138.882741864
138.463633568
138.028080084
137.575340436
137.104661709
136.615278935
136.106416265
135.577287667
135.027097563
134.455041534
133.860307283
133.242076163
132.59952117
131.931810453
131.238108282
130.517576026
129.769373482
128.99266057
128.186599191
127.350355253
126.483100988
125.584017584
124.652298204
123.687151435
122.687805243
121.653511512
120.583551373
119.477241391
118.333940737
117.153059584
115.934069118
114.676513325
113.380021128
112.044323615
110.669272553
109.254862138
107.801254453
106.308809059
104.778117174
103.210040819
101.605757186
99.966807875
98.2951507526
96.5932123441
94.86396705
93.1109627828
91.3383677514
89.550986807
87.7542373491
85.9540164519
84.1561908268
82.3662900911
80.5890771395
78.8193549814
77.0276178423
150.13604524
147.207947286
146.094418952
145.567347724
145.200247552
144.905673909
144.644216113
144.395849957
144.151493817
143.906580858
143.658416239
143.40524727
143.145843827
142.87927225
142.604767711
142.321658891
142.029321988
141.727152378
141.41454752
141.090899967
140.755604398
140.408020997
140.047480857
139.673318759
139.284852576
138.881383116
138.462196562
138.02656791
137.573754831
137.103002915
136.61354722
136.104612052
135.575411453
135.025149882
134.453022918
133.858217981
133.23991527
132.597288785
131.92950732
131.235735491
130.515135054
129.766866428
128.990090252
128.183969227
127.347670199
126.480366517
125.581240708
124.649487523
123.684317429
122.684960667
121.650671928
120.580735715
119.47447259
118.331246498
117.150473285
115.931630716
114.674270287
113.378031052
112.042655786
110.66800993
109.254103839
107.801118707
106.309436648
104.77967534
103.212727538
101.609805574
99.9724908881
98.3027908509
96.6032024211
94.876731128
93.1269821498
91.3581924949
89.5752512688
87.7836771943
85.9895163235
84.1992657052
82.4193461406
80.6545410483
78.884391049
76.9844386478
56.9375804074
53.3854519431
50.9940101133
49.036592334
47.3645605061
45.9077455303
44.6221642058
43.4781098595
42.4539077154
41.5328080734
40.7014002661
39.9486740446
39.2654226539
38.6438424716
38.0772497853
37.5598723232
37.0866909447
36.6533164015
36.2558914708
35.8910119519
35.5556620304
35.2471607999
34.9631175642
34.7013941852
34.4600731623
34.2374303554
34.0319116429
33.8421127675
33.6667619686
33.5047048954
33.3548914759
33.2163645116
33.0882496494
32.9697466299
32.8601215731
32.7587000917
32.6648611427
32.5780313259
32.4976793991
32.4233107939
32.3544611927
32.2906877996
32.2315733321
32.1768235764
32.1264570521
32.0800260249
32.0371089765
31.9973431935
31.9604999302
31.9263681897
31.8947453211
31.8654397654
31.8382769079
31.8131159902
31.7897937261
31.7681554172
31.7480594755
31.729401483
31.7120500976
31.6958932808
31.6808289013
31.6667632677
31.653610979
31.6412930289
31.6297372762
31.6188773381
31.6086517195
31.5990034997
31.5898808833
31.5812356732
31.5730236138
31.565207345
31.5577430238
31.5506065114
31.5437565695
31.5371700653
31.5308196139
31.5246825235
31.5187345151
31.5129565523
31.5073307518
31.5018404369
31.4964707813
31.4912080595
31.4860415303
31.480964638
31.4759700763
31.4710442537
31.4661778152
31.4613617331
31.456586872
31.4518482627
31.4471499778
31.4424977719
31.4378660845
31.4332462808
31.4286333705
31.4240230056
31.419411191
31.4147941863
31.4101684382
31.4055305018
31.4008769829
31.3962045007
31.3915096763
31.3867891802
31.3820398042
31.3772585503
31.3724426993
31.3675898408
31.3626978472
31.3577647949
31.3527888518
31.3477681703
31.3427008343
31.337584868
31.3324183721
31.3271996924
31.3219275954
31.3166014591
31.3112211411
31.3057866881
31.3002966153
31.2947395698
31.289093438
31.28328308
31.2778185947
31.2726339388
31.2673630852
31.2620621992
31.2568211746
31.2517105359
31.2467828788
31.2420922684
31.2376991775
31.233661897
31.2300367547
31.2268658137
31.2241683982
31.2218885363
31.2203058702
31.2190130087
31.2178954352
31.2163438079
31.2126309234
31.2024628997
31.1756439936
31.1104505192
30.9655712043
30.670457054
30.1198990934
29.1811747378
27.7218572139
25.6494917739
22.938258154
19.6442961276
15.8859808936
11.6311323355
6.60448456589
1.57078981681
60.1189289416
56.0661141866
53.3541260581
51.2017696747
49.3998321243
47.8499059178
46.4937784652
45.29421447
44.2250372313
43.2666100573
42.4035895078
41.6236264021
40.9165618327
40.2739009714
39.6884496095
39.1540526892
38.6653999767
38.2178778176
37.8074536203
37.4305842284
37.0841420926
36.7653551117
36.4717570435
36.2011461605
35.9515507162
35.7211995009
35.5084971876
35.3120028429
35.130411857
34.9625401462
34.8073105305
34.663741039
34.5309345801
34.4080699995
34.2943944462
34.1892164251
34.0919001534
34.0018603617
33.9185579916
33.8414970923
33.7702226872
33.7043205022
33.6434125597
33.5871241182
33.5349419886
33.4866136398
33.4419106951
33.4005727327
33.3623433665
33.3269799677
33.2942592122
33.2639737048
33.2359274493
33.2099402217
33.1858519139
33.1635032831
33.1427502566
33.1234712474
33.1055364972
33.0888444754
33.0732924556
33.058783911
33.045230808
33.0325509285
33.0206726379
33.0095212873
32.9990319893
32.9891455699
32.9798080541
32.9709679635
32.962578956
32.9546112604
32.9469989898
32.9397383963
32.9327816387
32.9260967579
32.9196588558
32.9134456426
32.9074306998
32.9015938722
32.8959169694
32.8903824554
32.8849757032
32.8796836348
32.8744922753
32.8693845454
32.8643462216
32.8593716004
32.854452836
32.8495822719
32.8447525943
32.839955693
32.8351826475
32.8304256422
32.825683473
32.8209539629
32.8162329882
32.8115163345
32.8068001034
32.802080657
32.7973545432
32.7926184531
32.7878690836
32.78310314
32.7783172814
32.7735081857
32.7686726128
32.7638074896
32.7589100074
32.7539776611
32.7490082343
32.7439997396
32.7389503162
32.7338581136
32.7287212805
32.7235379533
32.718306458
32.71302557
32.7076947648
32.7023146085
32.696886947
32.6914155164
32.6859060697
32.6803663029
32.6748194573
32.6692734445
32.6637783843
32.6581942013
32.6526375923
32.6473349841
32.6421297096
32.6370829364
32.6322770568
32.6277725357
32.6236403187
32.6199538593
32.6167894244
32.6141874496
32.6122231441
32.6108985547
32.6102597938
32.6101280587
32.6102247592
32.6097129106
32.6063405575
32.5948375335
32.5630148929
32.4858869045
32.3171609871
31.9799406404
31.3628829735
30.3302678047
28.7527854275
26.5478161273
23.7014289
20.2742492757
16.3826487825
12.0097308431
6.89399767495
1.70447636595
62.3263678252
58.3929216487
55.5257683747
53.24184207
51.339889367
49.713434621
48.2974459587
47.049907083
45.9413927884
44.9500383962
44.0589430828
43.2546491225
42.5261959743
41.8645011686
41.261934357
40.7120129998
40.2091781257
39.7486249074
39.3261719686
38.9381587868
38.5813638753
38.2529387668
37.9503541115
37.6713551453
37.4139248045
37.1762525324
36.9567083132
36.7538202656
36.5662557957
36.3928053303
36.2323682677
36.0839409836
35.9466063123
35.8195244058
35.7019249655
35.5931001219
35.4923985532
35.3992200681
35.3130106984
35.2332585571
35.1594896777
35.0912644716
35.0281761894
34.9698506676
34.9158569279
34.8657903699
34.8194993154
34.7767042369
34.7371286487
34.7005217549
34.6666538467
34.6353116102
34.6062959454
34.5794266855
34.5545367384
34.5314666374
34.5100610129
34.4901919565
34.471722388
34.4545420427
34.43854507
34.4236312908
34.409708366
34.3966902782
34.3844968818
34.3730584197
34.3623086139
34.3521852596
34.3426340673
34.3336034113
34.3250365268
34.3169162229
34.3091555712
34.3017716401
34.2946881212
34.2878885686
34.2813477402
34.27504031
34.2689385339
34.2630208224
34.2572686407
34.2516634061
34.2461886039
34.2408241077
34.2355596476
34.2303880872
34.2253004893
34.2202846915
34.215329989
34.2104273548
34.2055686916
34.2007464919
34.1959546472
34.1911870761
34.1864371923
34.1816994548
34.1769688852
34.1722409826
34.1675116195
34.1627769818
34.1580334792
34.1532776899
34.1485062216
34.14371572
34.1389028107
34.1340641515
34.1291964988
34.1242967903
34.1193622395
34.114390381
34.1093790607
34.1043263837
34.0992306215
34.0940901037
34.0889032181
34.0836683959
34.0783843137
34.0730501793
34.0676659916
34.0622329716
34.0567538287
34.051233296
34.0456785636
34.0400993681
34.0345154623
34.0289313503
34.0233653237
34.0178465551
34.012450393
34.0070808312
34.0018493385
33.9967887476
33.9920575584
33.9877022241
33.9837956978
33.9804241141
33.9776891328
33.9755888242
33.9742542744
33.973711149
33.973954761
33.974822336
33.9759157904
33.976137732
33.9726655471
33.9591923921
33.9215099454
33.8313658616
33.6376920927
33.2577338265
32.574855608
31.4512929484
29.7613018891
27.4313807984
24.45771591
20.9036080993
16.8821164167
12.3908762985
7.18313228161
1.83595638886
64.1305487742
60.4058318791
57.5018456757
55.1466743361
53.1765998652
51.4922838544
50.0285633266
48.7415559187
47.6000102907
46.5805971484
45.6652986297
44.8398205185
44.0925787327
43.414025397
42.7961813287
42.2323009431