/*--------------------------------*- C++ -*----------------------------------*\
| =========                 |                                                 |
| \\      /  F ield         | OpenFOAM: The Open Source CFD Toolbox           |
|  \\    /   O peration     | Version:  2106                                  |
|   \\  /    A nd           | Website:  www.openfoam.com                      |
|    \\/     M anipulation  |                                                 |
\*---------------------------------------------------------------------------*/
FoamFile
{
    version     2.0;
    format      ascii;
    arch        "LSB;label=32;scalar=64";
    class       surfaceScalarField;
    location    "0.36";
    object      phi;
}
// * * * * * * * * * * * * * * * * * * * * * * * * * * * * * * * * * * * * * //

dimensions      [0 3 -1 0 0 0 0];

oriented        oriented;

internalField   nonuniform List<scalar> 
22100
(
3.38461205487e-05
1.61538794483e-05
2.24572105401e-05
1.13889101736e-05
1.62585540958e-05
6.19865657866e-06
1.27977775515e-05
3.46077667592e-06
1.08046441097e-05
1.99313357376e-06
9.60459151564e-06
1.20005272601e-06
8.85132418475e-06
7.53267462604e-07
8.36435579611e-06
4.86968520313e-07
8.04433833821e-06
3.20017589663e-07
7.832843963e-06
2.11494507164e-07
7.69340121393e-06
1.39442881273e-07
7.60224473428e-06
9.11566124026e-08
7.54348235015e-06
5.87625178815e-08
7.50634582185e-06
3.71366634076e-08
7.48350668721e-06
2.28392713258e-08
7.46998622626e-06
1.35205993288e-08
7.46242195321e-06
7.56441305899e-09
7.45855425507e-06
3.86783971346e-09
7.45683556768e-06
1.71883111423e-09
7.45642927623e-06
4.06433248823e-10
7.45677941754e-06
-3.49999921516e-10
7.45746591047e-06
-6.86353329279e-10
7.45822456332e-06
-7.58516299938e-10
7.45895017894e-06
-7.25482098445e-10
7.45959480501e-06
-6.4449586955e-10
7.46013906072e-06
-5.44129673226e-10
7.46058150279e-06
-4.42320325317e-10
7.46093058736e-06
-3.48966890986e-10
7.46119922166e-06
-2.68521038999e-10
7.46140149289e-06
-2.02162105855e-10
7.4615507767e-06
-1.49178552234e-10
7.46165877334e-06
-1.07893594404e-10
7.46173521248e-06
-7.63400792091e-11
7.46178822566e-06
-5.29180388323e-11
7.46182176889e-06
-3.34542813118e-11
7.46184082904e-06
-1.89758760145e-11
7.46185016524e-06
-9.25953310009e-12
7.46185322092e-06
-2.98471043251e-12
7.46185194289e-06
1.34165271784e-12
7.46184746803e-06
4.52936648834e-12
7.46184073257e-06
6.78102083425e-12
7.46183234291e-06
8.42578155151e-12
7.46182266764e-06
9.70205469545e-12
7.46181188127e-06
1.08034361534e-11
7.46179998992e-06
1.18993443893e-11
7.46178687429e-06
1.31160114898e-11
7.46177231062e-06
1.45552403348e-11
7.46175598309e-06
1.63104821568e-11
7.46173747675e-06
1.84811756432e-11
7.46171625148e-06
2.1191986755e-11
7.46169170133e-06
2.45084726267e-11
7.46166313372e-06
2.85182423291e-11
7.46162976479e-06
3.331142785e-11
7.46159074432e-06
3.89544363584e-11
7.46154520304e-06
4.54657324906e-11
7.46149231114e-06
5.280664362e-11
7.46143142396e-06
6.07934121676e-11
7.4613624463e-06
6.88740295275e-11
7.46128606615e-06
7.62570952582e-11
7.46120475693e-06
8.11829503587e-11
7.46112493573e-06
7.97095631867e-11
7.46105864398e-06
6.61601372187e-11
7.46101349163e-06
4.5003696186e-11
7.46100887499e-06
4.45228967822e-12
7.46108075247e-06
-7.2048686484e-11
7.46128739863e-06
-2.06815466943e-10
7.46172329414e-06
-4.36068271219e-10
7.4625384891e-06
-8.15368293991e-10
7.46396820263e-06
-1.4298926064e-09
7.46636784545e-06
-2.39982914252e-09
7.47018669645e-06
-3.81904330782e-09
7.47663603702e-06
-6.44953199544e-09
7.48740671669e-06
-1.07708765756e-08
7.50558076617e-06
-1.8174250565e-08
7.53876422063e-06
-3.31836594841e-08
7.60797468646e-06
-6.92106726305e-08
7.77462676031e-06
-1.66652281128e-07
8.22951216822e-06
-4.54885616457e-07
9.69706080536e-06
-1.46754895331e-06
-5.45110450588e-06
1.51481649323e-05
5.02175950711e-05
1.59362845412e-05
4.4244112239e-05
1.73623932783e-05
3.77795025038e-05
1.26632665549e-05
3.26461454123e-05
8.59413400606e-06
2.89380936852e-05
5.70118553949e-06
2.63596236741e-05
3.77852297566e-06
2.4587519653e-05
2.52537172224e-06
2.33734779879e-05
1.70101042404e-06
2.25435293381e-05
1.14996647836e-06
2.19782210606e-05
7.76803024196e-07
2.15955189497e-05
5.22145233046e-07
2.13387428108e-05
3.47932993924e-07
2.11685017213e-05
2.2900385228e-07
2.10573445506e-05
1.48294081624e-07
2.09861570817e-05
9.40269905139e-08
2.09416851545e-05
5.79927791081e-08
2.09148037963e-05
3.44460254224e-08
2.08993051581e-05
1.93667330553e-08
2.0891081874e-05
9.94236876106e-09
2.08872820273e-05
4.20653401072e-09
2.08862135277e-05
7.1874905675e-10
2.08864596034e-05
-9.3217993285e-10
2.08873314157e-05
-1.63008556691e-09
2.08884712842e-05
-1.86511375427e-09
2.0889644973e-05
-1.81795436769e-09
2.08907283163e-05
-1.62724972497e-09
2.08916662564e-05
-1.38004478175e-09
2.08924441205e-05
-1.12662264199e-09
2.08930696721e-05
-8.93871761495e-10
2.08935621239e-05
-6.94420297713e-10
2.08939462423e-05
-5.33111504842e-10
2.08942481114e-05
-4.09586479359e-10
2.08944593884e-05
-2.87449147564e-10
2.08946067402e-05
-2.00108796581e-10
2.0894707388e-05
-1.33955875086e-10
2.08947730365e-05
-8.44856165749e-11
2.08948138397e-05
-4.99383180441e-11
2.08948379782e-05
-2.70133934e-11
2.08948502723e-05
-1.08570445674e-11
2.08948536562e-05
1.2245845004e-12
2.08948505474e-05
9.95209656688e-12
2.08948426111e-05
1.64075885319e-11
2.08948309863e-05
2.13567447092e-11
2.08948163905e-05
2.54133444306e-11
2.08947991965e-05
2.90909393089e-11
2.08947795454e-05
3.27504026039e-11
2.08947574205e-05
3.66488238448e-11
2.08947327011e-05
4.09838970605e-11
2.08947051955e-05
4.59265623389e-11
2.08946746282e-05
5.16848678723e-11
2.08946407859e-05
5.82605728402e-11
2.08946035318e-05
6.56666382087e-11
2.0894562885e-05
7.38360067828e-11
2.08945191681e-05
8.2532343202e-11
2.08944732554e-05
9.12218649627e-11
2.08944269446e-05
9.89408430018e-11
2.08943835859e-05
1.03955484238e-10
2.08943491952e-05
1.03066221987e-10
2.089433324e-05
9.19940269216e-11
2.08943510361e-05
6.31331432802e-11
2.08944297076e-05
7.91785163517e-13
2.08946178312e-05
-1.22227283328e-10
2.08949839094e-05
-3.21356853357e-10
2.0895646748e-05
-6.58677650859e-10
2.08967134804e-05
-1.13908557198e-09
2.08983619554e-05
-1.85560104724e-09
2.09009499292e-05
-3.02436384307e-09
2.09050252484e-05
-4.8910181688e-09
2.09114570084e-05
-7.86199065494e-09
2.09216687326e-05
-1.26118987145e-08
2.09381503368e-05
-2.03009997828e-08
2.09650465328e-05
-3.33460913779e-08
2.10092962723e-05
-5.50209817406e-08
2.10840704828e-05
-9.29488270318e-08
2.1215291616e-05
-1.6440516085e-07
2.14558600373e-05
-3.09779463687e-07
2.19136159246e-05
-6.24408486968e-07
2.28004395513e-05
-1.34170934449e-06
2.44440876713e-05
-3.11119700795e-06
-7.03716735951e-06
2.60301481965e-05
5.35171054921e-05
1.24191791843e-05
5.29349687673e-05
1.79445302422e-05
4.96538408208e-05
1.59443947123e-05
4.58401823885e-05
1.24077926478e-05
4.24400936152e-05
9.10127452251e-06
3.97291738881e-05
6.4894429125e-06
3.76873076503e-05
4.56723816978e-06
3.61976650679e-05
3.19065321626e-06
3.51326146834e-05
2.21501707313e-06
3.43823698853e-05
1.52704803312e-06
3.38606291614e-05
1.0438861688e-06
3.35023491843e-05
7.0621318442e-07
3.32596045531e-05
4.71748698854e-07
3.30975945256e-05
3.1030432667e-07
3.29913387348e-05
2.00283001122e-07
3.29230971443e-05
1.26234591229e-07
3.28804094805e-05
7.71339124021e-08
3.28546246268e-05
4.51518108273e-08
3.28397978057e-05
2.47694137645e-08
3.28318715694e-05
1.21329933686e-08
3.28280022931e-05
4.58824616228e-09
3.28270039473e-05
6.63809781574e-11
3.28271849437e-05
-1.81087048597e-09
3.28280335748e-05
-2.71353860175e-09
3.28291495488e-05
-2.9337282653e-09
3.28302969805e-05
-2.77448762691e-09
3.28313531214e-05
-2.43599846018e-09
3.2832263667e-05
-2.03698707857e-09
3.28330137712e-05
-1.64380080832e-09
3.28336095246e-05
-1.29000518845e-09
3.28340658828e-05
-9.89307875314e-10
3.28344008645e-05
-7.44410974149e-10
3.28346672232e-05
-5.53659851199e-10
3.28348835084e-05
-4.16251332258e-10
3.28350307443e-05
-2.8105762148e-10
3.28351299562e-05
-1.83575279935e-10
3.28351957928e-05
-1.15663852277e-10
3.28352376804e-05
-6.88027613848e-11
3.28352625046e-05
-3.55973751971e-11
3.28352742269e-05
-1.04269646364e-11
3.28352764089e-05
7.82561496932e-12
3.28352715498e-05
2.13073514689e-11
3.28352614706e-05
3.14628227288e-11
3.28352474013e-05
3.94958852786e-11
3.28352300983e-05
4.63933021045e-11
3.28352100282e-05
5.2807389286e-11
3.28351874882e-05
5.91629947548e-11
3.28351626907e-05
6.57426728269e-11
3.28351357767e-05
7.27883415851e-11
3.28351067297e-05
8.06668619244e-11
3.28350758633e-05
8.9047246584e-11
3.28350437871e-05
9.76476792497e-11
3.28350115488e-05
1.05963233648e-10
3.28349809513e-05
1.1300302574e-10
3.28349550127e-05
1.17019710404e-10
3.28349383912e-05
1.15407645165e-10
3.28349381778e-05
1.03990773974e-10
3.28349659412e-05
7.51198474456e-11
3.28350390035e-05
1.87387019284e-11
3.28351871805e-05
-8.52823322022e-11
3.28354619741e-05
-2.74220483282e-10
3.28359526819e-05
-6.13148324768e-10
3.28366716093e-05
-1.04052650713e-09
3.28377158689e-05
-1.70319439714e-09
3.28393445657e-05
-2.76804979684e-09
3.28419323705e-05
-4.44368475776e-09
3.28459833676e-05
-7.07564373737e-09
3.28523119565e-05
-1.12198937969e-08
3.28622309431e-05
-1.77812701696e-08
3.28779042638e-05
-2.82855219422e-08
3.29029914543e-05
-4.53885008462e-08
3.29428417824e-05
-7.31967368616e-08
3.30072819319e-05
-1.19461453384e-07
3.31132885357e-05
-1.98955751295e-07
3.32898647314e-05
-3.40981671774e-07
3.35851974808e-05
-6.05112541685e-07
3.40703383279e-05
-1.10954968307e-06
3.48113810133e-05
-2.0827521991e-06
3.5672083784e-05
-3.97189865753e-06
-7.10519163487e-06
3.57401128144e-05
5.35105665966e-05
8.90861271551e-06
5.55742226109e-05
1.58808744615e-05
5.52424830923e-05
1.62761344376e-05
5.35977867352e-05
1.40524892104e-05
5.15418486684e-05
1.11572127951e-05
4.95802810965e-05
8.45101069038e-06
4.79243522756e-05
6.2231671967e-06
4.66181406084e-05
4.49686508972e-06
4.56304680197e-05
3.20268986848e-06
4.49051192906e-05
2.25239696971e-06
4.4384092326e-05
1.56491334191e-06
4.40166964048e-05
1.0736093157e-06
4.37619701437e-05
7.26475172015e-07
4.35882717729e-05
4.84002911703e-07
4.34718726533e-05
3.16682337279e-07
4.33953628267e-05
2.02744636279e-07
4.33461927982e-05
1.26304160858e-07
4.33154554394e-05
7.58893903964e-08
4.32969193274e-05
4.33057462957e-08
4.32862935087e-05
2.27590308441e-08
4.32806909019e-05
1.01910700264e-08
4.32778834568e-05
2.87403907431e-09
4.32770559278e-05
-9.83134219352e-10
4.32772740511e-05
-2.93145931611e-09
4.32779618139e-05
-3.62129383437e-09
4.32788250857e-05
-3.63756820439e-09
4.32796980944e-05
-3.30882239846e-09
4.32804957222e-05
-2.83443661604e-09
4.32811816177e-05
-2.32952341757e-09
4.32817475634e-05
-1.85578405589e-09
4.3282200395e-05
-1.44197831986e-09
4.3282552824e-05
-1.09668848366e-09
4.32828146115e-05
-8.15301963814e-10
4.32829900659e-05
-5.91568721771e-10
4.32831230952e-05
-4.13954055999e-10
4.3283208581e-05
-2.68937406575e-10
4.32832625805e-05
-1.69554154739e-10
4.3283302439e-05
-1.08563024629e-10
4.32833269252e-05
-6.0002066465e-11
4.32833390266e-05
-2.24597864634e-11
4.32833421697e-05
4.73693415161e-12
4.32833383162e-05
2.52018830467e-11
4.32833291586e-05
4.06486448813e-11
4.3283315872e-05
5.27961608112e-11
4.32832991181e-05
6.31491353668e-11
4.32832793363e-05
7.2577784224e-11
4.32832568739e-05
8.1601952764e-11
4.32832320297e-05
9.05509211223e-11
4.32832051434e-05
9.9625058301e-11
4.32831768251e-05
1.08921696002e-10
4.32831477255e-05
1.18071310164e-10
4.32831188169e-05
1.26466221505e-10
4.32830915775e-05
1.33096175777e-10
4.32830681158e-05
1.36340223082e-10
4.32830513677e-05
1.33627858465e-10
4.328304584e-05
1.20784137187e-10
4.3283059607e-05
9.0056761602e-11
4.32831047356e-05
2.98044426075e-11
4.32832005395e-05
-7.72364254222e-11
4.32833631075e-05
-2.48095931803e-10
4.32836075307e-05
-5.18871421152e-10
4.32840531036e-05
-1.05893158131e-09
4.32848282559e-05
-1.81589516512e-09
4.32860856597e-05
-2.96084366291e-09
4.32880333533e-05
-4.71600012996e-09
4.32910215136e-05
-7.43211256126e-09
4.32956098298e-05
-1.16642335925e-08
4.3302676897e-05
-1.82872386339e-08
4.33136046618e-05
-2.87093171667e-08
4.33305505728e-05
-4.52317223607e-08
4.33568228252e-05
-7.16610517699e-08
4.33979897849e-05
-1.14364003689e-07
4.34628989401e-05
-1.84370924746e-07
4.35652672221e-05
-3.01324356373e-07
4.37250362157e-05
-5.00750981666e-07
4.39667799659e-05
-8.46856598812e-07
4.43071284984e-05
-1.4498986298e-06
4.47073303103e-05
-2.48295491855e-06
4.49264240447e-05
-4.19099382793e-06
-6.57575848562e-06
4.43969922812e-05
5.27351381253e-05
6.17347471745e-06
5.57309347807e-05
1.28850780401e-05
5.73114747825e-05
1.46955946432e-05
5.76109924492e-05
1.37529717503e-05
5.71335234672e-05
1.16346819838e-05
5.63194691687e-05
9.26506519599e-06
5.5448989258e-05
7.09364731471e-06
5.46629789835e-05
5.2828755719e-06
5.40136837246e-05
3.85198533554e-06
5.35061527095e-05
2.75992819389e-06
5.31242571252e-05
1.94680913635e-06
5.28449879343e-05
1.35287871827e-06
5.26454420613e-05
9.26021258569e-07
5.25057182067e-05
6.23726981779e-07
5.24097238413e-05
4.12676920306e-07
5.23450182452e-05
2.67450451809e-07
5.23022808414e-05
1.69041785063e-07
5.22746940934e-05
1.03476358947e-07
5.22573699482e-05
6.06301120476e-08
5.22468616289e-05
3.32675679977e-08
5.22407622407e-05
1.62906741054e-08
5.22374536262e-05
6.1828667841e-09
5.22359551178e-05
5.15583336697e-10
5.22354472674e-05
-2.42340553018e-09
5.22355122509e-05
-3.68607957642e-09
5.22358576922e-05
-3.98281748855e-09
5.22363118795e-05
-3.76282329482e-09
5.22367781787e-05
-3.30055610815e-09
5.22372054937e-05
-2.75666442603e-09
5.22375711054e-05
-2.22122728882e-09
5.22378683184e-05
-1.73902818113e-09
5.22380999191e-05
-1.32813435229e-09
5.22382761943e-05
-9.91426809468e-10
5.2238409048e-05
-7.24286243994e-10
5.22385093742e-05
-5.14153217577e-10
5.22385938865e-05
-3.53335367595e-10
5.22386594367e-05
-2.35000528181e-10
5.22387017046e-05
-1.50741815209e-10
5.2238734499e-05
-9.27139885714e-11
5.22387499377e-05
-3.78304245114e-11
5.22387552053e-05
-4.7662242094e-13
5.22387528849e-05
2.75635127139e-11
5.22387449265e-05
4.86378010419e-11
5.22387326587e-05
6.50773166164e-11
5.22387169514e-05
7.88582663537e-11
5.22386983734e-05
9.11435579606e-11
5.22386773986e-05
1.025523175e-10
5.22386546641e-05
1.13248589314e-10
5.22386315021e-05
1.2274561575e-10
5.22386055853e-05
1.34782808788e-10
5.22385787577e-05
1.44829836421e-10
5.22385521525e-05
1.52988198337e-10
5.22385273735e-05
1.57776045593e-10
5.22385070749e-05
1.56520291462e-10
5.22384968901e-05
1.43677133038e-10
5.22385057153e-05
1.11790325092e-10
5.2238537045e-05
5.85690284441e-11
5.22386140884e-05
-4.74446295398e-11
5.22387346267e-05
-1.97932354045e-10
5.22389303983e-05
-4.44116284163e-10
5.22392686925e-05
-8.57418526132e-10
5.22397879133e-05
-1.57838423907e-09
5.2240562712e-05
-2.59092123329e-09
5.22417258957e-05
-4.12426596781e-09
5.22434808469e-05
-6.47120295213e-09
5.22461288958e-05
-1.00804236947e-08
5.2250122016e-05
-1.56576236319e-08
5.22561514063e-05
-2.43169042465e-08
5.22652758918e-05
-3.78340837943e-08
5.22791127394e-05
-5.90688582377e-08
5.230011945e-05
-9.26680593006e-08
5.23320110718e-05
-1.46255929116e-07
5.23801297901e-05
-2.3248995538e-07
5.24513994008e-05
-3.7259429605e-07
5.25526797117e-05
-6.02031623856e-07
5.26845105175e-05
-9.78687649551e-07
5.28246609149e-05
-1.59004911332e-06
5.28916449028e-05
-2.54993923717e-06
5.26730195447e-05
-3.97236987197e-06
-5.76686547405e-06
5.18641271553e-05
5.19834865909e-05
4.18998825401e-06
5.5058664306e-05
9.80990056006e-06
5.76386137054e-05
1.21156454521e-05
5.93259038055e-05
1.20656818578e-05
6.02280159906e-05
1.07325700067e-05
6.05929273231e-05
8.90015407197e-06
6.06482843909e-05
7.03829045581e-06
6.0553190079e-05
5.37797009313e-06
6.04029556508e-05
4.00221997374e-06
6.02479152922e-05
2.91496876342e-06
6.01107899125e-05
2.08393472798e-06
5.99990305416e-05
1.46463830268e-06
5.99125155207e-05
1.0125364948e-06
5.98479237836e-05
6.88318935963e-07
5.98010203701e-05
4.5958055247e-07
5.97677358701e-05
3.00735172203e-07
5.97445946618e-05
1.92183214683e-07
5.97288162583e-05
1.19254983102e-07
5.97182682471e-05
7.11783439517e-08
5.97113621879e-05
4.01738458575e-08
5.97069429676e-05
2.07101098534e-08
5.97042092005e-05
8.91684576117e-09
5.97026002857e-05
2.12470627354e-09
5.97016958648e-05
-1.51878127242e-09
5.97012376714e-05
-3.22768790186e-09
5.97010482397e-05
-3.7931938488e-09
5.97010120371e-05
-3.72643368237e-09
5.9701056404e-05
-3.34474211886e-09
5.97011376199e-05
-2.83770556072e-09
5.9701230017e-05
-2.31345519117e-09
5.97013197173e-05
-1.82856500776e-09
5.97014001033e-05
-1.4083644257e-09
5.97014697512e-05
-1.06092575463e-09
5.97015292632e-05
-7.83657976395e-10
5.97015794439e-05
-5.64203385362e-10
5.97016191984e-05
-3.92969306395e-10
5.97016469608e-05
-2.62653502765e-10
5.9701662291e-05
-1.6597093004e-10
5.9701660691e-05
-9.10281364365e-11
5.97016526516e-05
-2.97215353398e-11
5.9701646115e-05
6.11429575275e-12
5.97016369965e-05
3.67218528299e-11
5.97016265875e-05
5.90685493027e-11
5.97016150542e-05
7.66210954008e-11
5.97016013091e-05
9.26015839759e-11
5.97015851969e-05
1.07240844371e-10
5.97015668009e-05
1.2091962647e-10
5.97015461763e-05
1.33830493821e-10
5.97015229269e-05
1.45930460038e-10
5.97015006703e-05
1.56960340248e-10
5.9701479243e-05
1.66161931794e-10
5.9701459887e-05
1.72231689128e-10
5.97014442661e-05
1.73266425165e-10
5.97014338762e-05
1.66760352766e-10
5.97014275239e-05
1.49871697654e-10
5.97014186212e-05
1.20485543326e-10
5.97014238153e-05
5.31932545611e-11
5.97014356806e-05
-5.95156539169e-11
5.97015210448e-05
-2.83450652143e-10
5.970171081e-05
-6.34122178369e-10
5.97020112648e-05
-1.15813746446e-09
5.97023991371e-05
-1.96650574768e-09
5.97029788602e-05
-3.17088129245e-09
5.9703832843e-05
-4.97848501908e-09
5.97050751079e-05
-7.7137149141e-09
5.97068707264e-05
-1.18763000685e-08
5.97094577783e-05
-1.82449421972e-08
5.97131802517e-05
-2.80396511406e-08
5.97185277789e-05
-4.31818918562e-08
5.97261809118e-05
-6.67222801125e-08
5.97370407727e-05
-1.03528217806e-07
5.97521693023e-05
-1.61384760596e-07
5.97724031858e-05
-2.52724143773e-07
5.97971494423e-05
-3.97340880534e-07
5.9821249933e-05
-6.26132489958e-07
5.98278289589e-05
-9.85267013674e-07
5.97748488174e-05
-1.53706903798e-06
5.95743998056e-05
-2.34949016332e-06
5.90686875179e-05
-3.46665858715e-06
-4.79574015655e-06
5.80975625053e-05
5.14373054928e-05
2.75268288897e-06
5.4265820909e-05
6.98138537984e-06
5.72496437359e-05
9.13182283441e-06
5.97900282359e-05
9.52529756637e-06
6.17201288636e-05
8.80246958815e-06
6.30883039398e-05
7.53197920554e-06
6.40167176265e-05
6.10987697948e-06
6.46292375523e-05
4.76545037828e-06
6.50258046411e-05
3.60565309674e-06
6.52790793507e-05
2.66169426653e-06
6.54389745376e-05
1.92403975495e-06
6.55386915117e-05
1.36492154381e-06
6.55999302014e-05
9.51298021974e-07
6.56367451789e-05
6.51504177058e-07
6.56581964507e-05
4.38129500576e-07
6.56701048546e-05
2.88826989497e-07
6.56761942825e-05
1.86094008908e-07
6.56788307858e-05
1.16618701268e-07
6.56795014263e-05
7.05079241175e-08
6.56791254263e-05
4.05500648092e-08
6.56782582374e-05
2.15775149945e-08
6.56772275272e-05
9.94776828084e-09
6.56762184797e-05
3.13396196765e-09
6.56753093958e-05
-6.09493856038e-10
6.56745408912e-05
-2.45898339237e-09
6.56739127149e-05
-3.16482301514e-09
6.56734139918e-05
-3.22752172368e-09
6.56730272566e-05
-2.95782404781e-09
6.56727335215e-05
-2.54379395963e-09
6.56725146223e-05
-2.09438573884e-09
6.56723544464e-05
-1.66822551479e-09
6.56722393216e-05
-1.29308321625e-09
6.56721571166e-05
-9.78573084527e-10
6.56720972126e-05
-7.23614533825e-10
6.56720538308e-05
-5.20692397387e-10
6.56720227418e-05
-3.6176299656e-10
6.56719978346e-05
-2.37640539515e-10
6.56719764063e-05
-1.44452527212e-10
6.56719614875e-05
-7.60335687375e-11
6.56719597984e-05
-2.79694022058e-11
6.567195833e-05
7.63832108603e-12
6.56719510417e-05
4.40526728277e-11
6.56719411174e-05
6.90264193381e-11
6.56719287053e-05
8.90572982709e-11
6.56719147266e-05
1.06589247287e-10
6.56718992206e-05
1.22741989985e-10
6.56718820468e-05
1.38074192263e-10
6.56718631389e-05
1.52706825176e-10
6.56718429746e-05
1.66050117825e-10
6.56718236547e-05
1.76220792429e-10
6.56718041197e-05
1.85621370148e-10
6.56717848685e-05
1.9139055983e-10
6.56717670415e-05
1.90986027408e-10
6.56717525845e-05
1.81096964104e-10
6.56717452799e-05
1.57031033579e-10
6.56717527299e-05
1.12915218845e-10
6.56717585352e-05
4.71441873204e-11
6.56717926222e-05
-9.37854701465e-11
6.56718604271e-05
-3.51403890599e-10
6.56719592115e-05
-7.33073438768e-10
6.56721102077e-05
-1.30936587134e-09
6.56723204457e-05
-2.17699353372e-09
6.56726065582e-05
-3.45723691284e-09
6.56729851738e-05
-5.35733749059e-09
6.56734673208e-05
-8.19610519365e-09
6.56740507643e-05
-1.24599967922e-08
6.56747055229e-05
-1.8899963083e-08
6.56753462291e-05
-2.86806280206e-08
6.56757722322e-05
-4.36081743555e-08
6.56755563825e-05
-6.65067199479e-08
6.56738300749e-05
-1.01802210261e-07
6.56688604918e-05
-1.56415481629e-07
6.56571150222e-05
-2.4097897274e-07
6.56314678577e-05
-3.71694025272e-07
6.55777731909e-05
-5.72438198734e-07
6.54688082686e-05
-8.76302520588e-07
6.52554256545e-05
-1.32368666544e-06
6.48576159962e-05
-1.95168042638e-06
6.41629737051e-05
-2.77201698956e-06
-3.71416919979e-06
6.30814027296e-05
5.10850424834e-05
1.66764053393e-06
5.36118448978e-05
4.45458320215e-06
5.66873169943e-05
6.05635094786e-06
5.96894471735e-05
6.5231675967e-06
6.22997279453e-05
6.19218902654e-06
6.44136896672e-05
5.41801769466e-06
6.60471859692e-05
4.47638088949e-06
6.72686176804e-05
3.54401887956e-06
6.8159896894e-05
2.71437409671e-06
6.8797763688e-05
2.02382768707e-06
6.92467482829e-05
1.47505537572e-06
6.95579673604e-05
1.05370268329e-06
6.97704343077e-05
7.38831293123e-07
6.99131776755e-05
5.08761029222e-07
7.00073891293e-05
3.43918267899e-07
7.00682990808e-05
2.27917259868e-07
7.01067015336e-05
1.47691778574e-07
7.01301442822e-05
9.31761747093e-08
7.01438338608e-05
5.68185661056e-08
7.01513104153e-05
3.30737289841e-08
7.01549433393e-05
1.79448069164e-08
7.01562915566e-05
8.59976343262e-09
7.01563638644e-05
3.06186241957e-09
7.01557722412e-05
-1.76683016849e-11
7.01549117569e-05
-1.59830133141e-09
7.01539885262e-05
-2.24139850669e-09
7.01531202552e-05
-2.3590613997e-09
7.01523606032e-05
-2.19798778854e-09
7.01517267764e-05
-1.90978926575e-09
7.01512159203e-05
-1.58335844861e-09
7.01508151054e-05
-1.26724598442e-09
7.01505073794e-05
-9.85199298915e-10
7.01502751052e-05
-7.46149841608e-10
7.01501021161e-05
-5.50485558293e-10
7.01499754151e-05
-3.93861293715e-10
7.01498843499e-05
-2.70579332661e-10
7.01498218175e-05
-1.7500087769e-10
7.01497803683e-05
-1.0290866741e-10
7.01497519755e-05
-4.75580316655e-11
7.01497221987e-05
1.88076378921e-12
7.01496989037e-05
3.0986014866e-11
7.01496859335e-05
5.70653177647e-11
7.0149675529e-05
7.94574518803e-11
7.01496657294e-05
9.88721713349e-11
7.01496557753e-05
1.1654733481e-10
7.01496452881e-05
1.33221845676e-10
7.01496341325e-05
1.49210385614e-10
7.01496223427e-05
1.64463421629e-10
7.01496097701e-05
1.78575182861e-10
7.01495949977e-05
1.90929857086e-10
7.01495799434e-05
2.00594413844e-10
7.01495654509e-05
2.05780833662e-10
7.01495522777e-05
2.0403784827e-10
7.01495410005e-05
1.92244596762e-10
7.01495311228e-05
1.66740218842e-10
7.01495200066e-05
1.23860862913e-10
7.01495130204e-05
5.39782703503e-11
7.01495018828e-05
-8.27038823681e-11
7.01495129003e-05
-3.62633939427e-10
7.01495359375e-05
-7.56246496281e-10
7.0149559164e-05
-1.33279166586e-09
7.01495611589e-05
-2.17922758619e-09
7.01495151538e-05
-3.41147656386e-09
7.01493679276e-05
-5.21035252603e-09
7.01490205769e-05
-7.84899866562e-09
7.01482980188e-05
-1.17376902007e-08
7.01468987675e-05
-1.75009715124e-08
7.0144311495e-05
-2.60936239909e-08
7.01396623317e-05
-3.89592889123e-08
7.01314706338e-05
-5.8315311935e-08
7.01172478525e-05
-8.75797320347e-08
7.00928410582e-05
-1.32008998217e-07
7.00511635391e-05
-1.99301757826e-07
6.99802467216e-05
-3.00777506049e-07
6.98601338777e-05
-4.52325700015e-07
6.96583961073e-05
-6.7456519017e-07
6.93251464655e-05
-9.90437416175e-07
6.87908785218e-05
-1.41741254778e-06
6.79730688605e-05
-1.9542078235e-06
-2.5548253987e-06
6.68137248524e-05
5.08804133169e-05
7.87227345916e-07
5.31704665251e-05
2.16453023127e-06
5.62177502648e-05
3.0090674188e-06
5.94382704437e-05
3.30264762808e-06
6.24449704276e-05
3.18548925373e-06
6.50382540024e-05
2.82473433164e-06
6.71548677205e-05
2.35976738432e-06
6.88135663565e-05
1.88532045755e-06
7.0073172495e-05
1.4547681733e-06
7.10056695939e-05
1.09133080429e-06
7.16812660234e-05
7.99459163444e-07
7.21614255222e-05
5.73543402935e-07
7.24966065989e-05
4.03650436196e-07
7.27264833093e-05
2.78884539814e-07
7.28812823711e-05
1.89119428104e-07
7.29834722961e-05
1.25727556989e-07
7.30494162555e-05
8.1748041353e-08
7.3090818546e-05
5.17741060504e-08
7.31159126768e-05
3.17246556007e-08
7.31303973816e-05
1.85892422824e-08
7.31381522857e-05
1.01901182995e-08
7.31417729057e-05
4.9793557292e-09
7.31429607946e-05
1.87418324581e-09
7.31428145694e-05
1.28762905951e-10
7.31419915103e-05
-7.75042191823e-10
7.31409087642e-05
-1.1584571864e-09
7.31397940498e-05
-1.24415670579e-09
7.31387667738e-05
-1.17052609767e-09
7.31378793908e-05
-1.02222593321e-09
7.31371458123e-05
-8.49606509912e-10
7.31365586562e-05
-6.79924175705e-10
7.31361005346e-05
-5.26919711046e-10
7.31357505784e-05
-3.96044804715e-10
7.31354881582e-05
-2.87926628544e-10
7.31352949304e-05
-2.00505506799e-10
7.31351552658e-05
-1.30797851517e-10
7.31350559175e-05
-7.55476659372e-11
7.31349843807e-05
-3.12794323566e-11
7.31349312225e-05
5.67515926984e-12
7.31349014999e-05
3.16708382616e-11
7.31348784461e-05
5.40968428139e-11
7.31348616703e-05
7.38845133607e-11
7.31348493273e-05
9.18300271723e-11
7.31348396131e-05
1.0860235607e-10
7.31348312601e-05
1.24903328052e-10
7.31348233872e-05
1.41084383919e-10
7.31348153826e-05
1.57191513709e-10
7.313480682e-05
1.72988023053e-10
7.31347974299e-05
1.87912391286e-10
7.31347871846e-05
2.01106895281e-10
7.31347761475e-05
2.11546108782e-10
7.31347643894e-05
2.17431701388e-10
7.31347520434e-05
2.16255369045e-10
7.31347393957e-05
2.04759885509e-10
7.31347270734e-05
1.78929745267e-10
7.31347164206e-05
1.34447302791e-10
7.3134699919e-05
6.98491673061e-11
7.3134677023e-05
-5.99423385472e-11
7.31346354592e-05
-3.21344874452e-10
7.31345695245e-05
-6.90475016441e-10
7.31344554772e-05
-1.21893175651e-09
7.3134250054e-05
-1.97403516837e-09
7.31338852745e-05
-3.04694005439e-09
7.3133246243e-05
-4.57156728862e-09
7.31321400222e-05
-6.74302727652e-09
7.31302448817e-05
-9.84280454821e-09
7.31270334715e-05
-1.42898226337e-08
7.31216508615e-05
-2.07112843969e-08
7.31126845711e-05
-2.9993277042e-08
7.30978302935e-05
-4.34613249772e-08
7.30733811698e-05
-6.31309124175e-08
7.30334408284e-05
-9.20689713008e-08
7.29684971925e-05
-1.34358434871e-07
7.28635351459e-05
-1.9581576043e-07
7.26953922309e-05
-2.84183098459e-07
7.24295740586e-05
-4.08747405027e-07
7.20177283175e-05
-5.78592113597e-07
7.13986713285e-05
-7.9835575848e-07
7.0506869658e-05
-1.06240654262e-06
-1.34567658888e-06
6.92977205645e-05
5.07871727244e-05
5.47507979344e-11
5.29516502034e-05
5.29896491176e-11
5.59606890032e-05
2.88298194591e-11
5.92633226343e-05
1.42077167794e-11
6.24488093419e-05
2.7583018422e-12
6.52735499952e-05
-6.10874219162e-12
6.76333296068e-05
-1.20134094161e-11
6.95186652377e-05
-1.49583969985e-11
7.09734490151e-05
-1.53880210986e-11
7.20647939372e-05
-1.39005537621e-11
7.28642644483e-05
-1.1129291828e-11
7.34378158004e-05
-7.72972296639e-12
7.3841470819e-05
-4.36173612996e-12
7.41203572505e-05
-1.67002100633e-12
7.43094771406e-05
-2.39448566112e-13
7.44352053955e-05
-4.75049021516e-13
7.45169562826e-05
-2.62356769089e-12
7.45687370514e-05
-6.44145792047e-12
7.46004732176e-05
-1.12908601445e-11
7.46190788687e-05
-1.61914011014e-11
7.4629289217e-05
-2.00154763527e-11
7.46342904527e-05
-2.16691383659e-11
7.46361855296e-05
-2.06869176134e-11
7.4636332843e-05
-1.83460919055e-11
7.46355738151e-05
-1.58139635432e-11
7.46344282146e-05
-1.26601283642e-11
7.46331933061e-05
-9.0568327055e-12
7.46320280403e-05
-5.07409487252e-12
7.46310062154e-05
-2.20288771255e-13
7.46301529213e-05
3.86174233614e-12
7.46294646396e-05
8.52448029579e-12
7.46289243789e-05
1.34995235732e-11
7.46285097394e-05
1.87438152912e-11
7.46281976316e-05
2.43197658639e-11
7.4627966845e-05
3.04084568354e-11
7.46277990332e-05
3.71307005322e-11
7.46276790252e-05
4.45651716419e-11
7.46275951432e-05
5.26943284098e-11
7.46275393518e-05
6.15522822718e-11
7.4627500331e-05
7.07592274386e-11
7.46274741916e-05
8.0292241345e-11
7.46274570688e-05
9.10513088068e-11
7.46274459807e-05
1.02950233907e-10
7.46274386926e-05
1.15909659856e-10
7.46274336657e-05
1.29936262423e-10
7.46274298302e-05
1.44911993447e-10
7.46274264365e-05
1.60563362217e-10
7.46274229475e-05
1.76440151648e-10
7.46274189401e-05
1.91867128046e-10
7.46274140665e-05
2.05912630911e-10
7.46274081472e-05
2.17381854039e-10
7.46274009661e-05
2.24507396361e-10
7.46273921477e-05
2.24940208742e-10
7.46273810421e-05
2.15720812572e-10
7.46273665134e-05
1.93339800652e-10
7.46273467885e-05
1.5412830019e-10
7.46273211119e-05
9.53549267531e-11
7.46272757154e-05
-1.4800549938e-11
7.46271876939e-05
-2.33579712671e-10
7.46270520587e-05
-5.55038820862e-10
7.4626829355e-05
-9.96409836311e-10
7.46264588353e-05
-1.60373305275e-09
7.46258442309e-05
-2.43257216885e-09
7.46248288574e-05
-3.55643996528e-09
7.46231577492e-05
-5.07217136035e-09
7.46204143551e-05
-7.09966877831e-09
7.46159321401e-05
-9.80787019571e-09
7.46086536292e-05
-1.34330465035e-08
7.45968426897e-05
-1.81826194448e-08
7.45776992834e-05
-2.43182114883e-08
7.45468066164e-05
-3.22385492208e-08
7.44974381968e-05
-4.27008618097e-08
7.44188603547e-05
-5.57809052991e-08
7.4294680827e-05
-7.16365414925e-08
7.41005294931e-05
-9.00320652239e-08
7.380160191e-05
-1.09820150182e-07
7.33512541421e-05
-1.28244760104e-07
7.26930368733e-05
-1.40138769359e-07
7.17689479786e-05
-1.38317989164e-07
-1.14293624984e-07
7.05375647143e-05
5.07871716883e-05