/*--------------------------------*- C++ -*----------------------------------*\
| =========                 |                                                 |
| \\      /  F ield         | OpenFOAM: The Open Source CFD Toolbox           |
|  \\    /   O peration     | Version:  2106                                  |
|   \\  /    A nd           | Website:  www.openfoam.com                      |
|    \\/     M anipulation  |                                                 |
\*---------------------------------------------------------------------------*/
FoamFile
{
    version     2.0;
    format      ascii;
    arch        "LSB;label=32;scalar=64";
    class       volScalarField;
    location    "0.17";
    object      p;
}
// * * * * * * * * * * * * * * * * * * * * * * * * * * * * * * * * * * * * * //

dimensions      [0 2 -2 0 0 0 0];

internalField   nonuniform List<scalar> 
9600
(
2.21839834005
-0.67961138778
-1.58384267239
-1.96945371028
-2.18878495357
-2.32872744133
-2.43263321453
-2.52018348709
-2.59968332436
-2.67507447924
-2.74844922257
-2.82095838805
-2.8932318726
-2.9656005819
-3.03822100682
-3.11114917891
-3.1843852936
-3.25790085297
-3.33165563476
-3.40560681538
-3.47971339867
-3.55394095131
-3.62825918486
-3.70264362245
-3.77707504227
-3.85153868113
-3.92602269448
-4.0005180655
-4.07501822686
-4.14951773432
-4.22401238587
-4.29849929392
-4.37297559348
-4.44743872683
-4.52188695938
-4.59631823593
-4.67073039367
-4.74512187589
-4.81949065341
-4.89383422333
-4.96815059779
-5.04243746405
-5.1166918137
-5.19091109159
-5.26509247594
-5.33923226212
-5.4133269632
-5.4873729942
-5.56136595519
-5.63530160456
-5.70917557879
-5.78298250566
-5.85671690097
-5.93037322773
-6.00394495163
-6.077425271
-6.15080738977
-6.22408352496
-6.29724537505
-6.3702845451
-6.44319164521
-6.51595658077
-6.58856906471
-6.66101790592
-6.73329105248
-6.80537602377
-6.87725929651
-6.94892642328
-7.02036248198
-7.09155146921
-7.16247626053
-7.23311910146
-7.3034610849
-7.37348198417
-7.44316074645
-7.51247513656
-7.58140156096
-7.64991541798
-7.71799078364
-7.78560027842
-7.85271531635
-7.91930574016
-7.98533991485
-8.05078504951
-8.11560645094
-8.17976751236
-8.24323056704
-8.30595629
-8.36790328324
-8.42902868801
-8.48928767877
-8.54863337956
-8.60701763285
-8.66439015329
-8.72069828927
-8.77588819867
-8.82990396294
-8.88268689299
-8.93417700859
-8.98431251406
-9.03302881992
-9.0802600163
-9.12593856209
-9.16999382897
-9.21235365951
-9.25294448891
-9.29168987837
-9.3285120707
-9.36333203373
-9.39606758081
-9.426635277
-9.45495098265
-9.48092753261
-9.50447616645
-9.52550783488
-9.54393079902
-9.55965184626
-9.57257801915
-9.58261425758
-9.58966378749
-9.59362989634
-9.59441428839
-9.59191780726
-9.58604186267
-9.57668641067
-9.56375034685
-9.54713308386
-9.52673342159
-9.5024482687
-9.47417596182
-9.44181486144
-9.40526150644
-9.36441310256
-9.31916646159
-9.26941644073
-9.21505773474
-9.15598331938
-9.09208323996
-9.02324620791
-8.94935662906
-8.87029214943
-8.78592422828
-8.69611601467
-8.6007176881
-8.49956360238
-8.39246937629
-8.27922193379
-8.15957194378
-8.03322259791
-7.89980893546
-7.75887275605
-7.60981949964
-7.4518455576
-7.28381339945
-7.1040369979
-6.90996431752
-6.69769449421
-6.46139142618
-6.20167512006
-5.98389820207
0.306857045848
-0.875497182137
-1.48417055989
-1.83819517267
-2.08081203287
-2.25137480211
-2.3794470005
-2.48395052835
-2.57502660799
-2.65830599636
-2.73707988058
-2.81329748234
-2.88811830977
-2.96223078908
-3.03603689779
-3.10976339446
-3.18353029699
-3.25739315292
-3.33137052874
-3.40546089824
-3.47965239618
-3.55392832575
-3.62827234414
-3.70266897817
-3.77710442522
-3.8515676119
-3.92604909113
-4.00054096878
-4.07503751333
-4.14953389755
-4.22402583451
-4.29851045639
-4.37298514775
-4.44744709296
-4.52189443813
-4.59632535245
-4.67073740568
-4.74512883892
-4.81949789157
-4.89384192932
-4.96815877526
-5.04244634849
-5.11670158782
-5.19092161978
-5.26510385063
-5.33924464805
-5.41334027286
-5.48738733938
-5.56138157976
-5.63531848793
-5.70919380227
-5.78300227597
-5.85673817118
-5.93039607302
-6.00396969104
-6.07745197976
-6.15083610808
-6.22411449576
-6.29727869148
-6.37032026141
-6.44323003917
-6.51599781903
-6.58861326948
-6.66106537544
-6.73334200012
-6.80543057236
-6.87731769748
-6.9489888515
-7.02042907976
-7.09162258374
-7.16255221797
-7.23320014388
-7.30354757029
-7.37357418775
-7.44325879676
-7.51257930257
-7.58151222772
-7.65003297731
-7.71811566451
-7.7857328288
-7.85285585909
-7.91945470449
-7.98549760911
-8.05095176795
-8.11578279053
-8.17995402883
-8.24342760106
-8.30616426146
-8.36812253326
-8.42925955439
-8.48953086913
-8.54888951873
-8.607287058
-8.66467340563
-8.72099588397
-8.77620044466
-8.830231466
-8.88303026543
-8.93453660489
-8.98468911359
-9.03342325889
-9.08067240662
-9.12636918204
-9.17044340429
-9.21282270063
-9.25343372677
-9.29220015663
-9.32904359116
-9.36388518086
-9.39664309061
-9.42723304685
-9.45557105544
-9.48157062676
-9.50514258969
-9.52619786837
-9.54464530859
-9.5603911463
-9.5733421376
-9.58340379856
-9.5904791419
-9.59447138902
-9.59528267151
-9.59281344515
-9.58696510717
-9.57763763185
-9.56472875823
-9.5481384705
-9.52776714489
-9.50351267547
-9.47527303574
-9.44294738241
-9.40643317234
-9.36562797336
-9.32043028692
-9.27073682097
-9.21644386934
-9.15744713954
-9.09363914242
-9.02491129477
-8.95115304445
-8.87224821435
-8.78807496745
-8.69850558983
-8.60340226994
-8.50261329877
-8.3959733144
-8.28329530288
-8.1643636033
-8.03892862688
-7.90669277589
-7.7672955557
-7.62029412066
-7.46513659484
-7.30113005614
-7.12741804696
-6.94304742882
-6.74721849171
-6.5391280953
-6.31917825453
-6.11020187475
-0.668984879016
-1.15035316615
-1.54161101188
-1.83322680156
-2.05480097961
-2.22273660376
-2.35483852597
-2.46462812634
-2.56048736414
-2.64763277797
-2.72937585431
-2.80781089718
-2.88425824225
-2.95954780627
-3.03419585022
-3.10851766772
-3.18270063676
-3.25685081546
-3.33102385498
-3.40524548579
-3.47952343229
-3.55385526567
-3.62823442014
-3.70265258834
-3.77710065412
-3.85157064688
-3.92605551629
-4.00054872859
-4.07504531656
-4.14954128526
-4.22403265047
-4.29851649477
-4.372990546
-4.44745205601
-4.52189891015
-4.59632951143
-4.67074151364
-4.74513282501
-4.81950182563
-4.89384602369
-4.96816291621
-5.04245055734
-5.11670613715
-5.1909264849
-5.26510897039
-5.33925021383
-5.41334627272
-5.48739373238
-5.56138861981
-5.63532619791
-5.70920207459
-5.78301128625
-5.85674795093
-5.93040649276
-6.00398091764
-6.0774641357
-6.150849115
-6.22412847705
-6.29729378869
-6.37033640518
-6.44324733435
-6.51601644239
-6.58863324486
-6.66108682088
-6.7333650433
-6.8054551902
-6.87734400753
-6.9490170463
-7.02045919882
-7.09165473261
-7.16258656992
-7.23323673168
-7.30358650814
-7.37361570322
-7.44330299354
-7.51262625935
-7.5815620771
-7.65008583078
-7.71817172025
-7.78579230273
-7.8529188999
-7.91952160827
-7.9855686206
-8.05102682007
-8.11586196499
-8.18003768071
-8.24351595253
-8.30625752368
-8.36822093742
-8.42936313925
-8.48963983815
-8.54900421199
-8.60740752661
-8.66479986675
-8.72112879953
-8.77633986341
-8.83037743662
-8.88318314504
-8.93469641346
-8.98485584473
-9.03359751643
-9.0808544302
-9.12655894339
-9.17064118432
-9.21302856691
-9.25364764966
-9.29242259901
-9.32927472408
-9.36412494002
-9.39689221479
-9.42749229173
-9.45584047394
-9.48185071985
-9.50543379838
-9.52650009231
-9.54495913111
-9.56071735638
-9.57368097236
-9.58375578532
-9.59084491505
-9.59485139399
-9.59567801187
-9.59322522917
-9.58739409853
-9.57808603466
-9.56519964568
-9.54863365146
-9.52828866728
-9.50406343254
-9.47585594154
-9.44356604236
-9.40709231067
-9.36633271445
-9.32118690596
-9.27155334655
-9.21732977201
-9.15841461632
-9.09470370055
-9.0260910619
-8.95247016351
-8.87373091994
-8.78975826388
-8.70043283439
-8.605628804
-8.5052088829
-8.39902557182
-8.28691647383
-8.16869800665
-8.04416421699
-7.91307892359
-7.77516846263
-7.63011745218
-7.47756757058
-7.31712647244
-7.14840767514
-6.97115811333
-6.78556719976
-6.59241610175
-6.39311374577
-6.1965406621
-1.22044503385
-1.40679164775
-1.64923846343
-1.87170570095
-2.05889692056
-2.21292480967
-2.34136214108
-2.4516536994
-2.54944901718
-2.63880969722
-2.72258154987
-2.80270879105
-2.8804987892
-2.95682094051
-3.0322458358
-3.1071419611
-3.18174316215
-3.25619390973
-3.33058012418
-3.40495080281
-3.47933156226
-3.55373327813
-3.62815946649
-3.70260837401
-3.77707628719
-3.85155861464
-3.92605095558
-4.0005485827
-4.07504744151
-4.14954445745
-4.2240363151
-4.29852016313
-4.37299401414
-4.447455404
-4.52190200455
-4.59633230579
-4.67074423976
-4.74513547079
-4.81950435013
-4.89384866953
-4.96816570043
-5.04245336816
-5.11670916147
-5.19092977347
-5.26511237805
-5.33925386579
-5.41335025305
-5.48739791934
-5.56139310082
-5.63533105834
-5.70920718551
-5.78301675018
-5.85675391642
-5.93041284817
-6.00398770067
-6.07747149982
-6.15085699927
-6.22413691734
-6.29730295443
-6.37034627859
-6.44325793175
-6.51602794176
-6.58864565774
-6.66110013746
-6.73337935036
-6.80547045675
-6.8773602709
-6.94903449644
-7.0204778416
-7.09167454156
-7.16260768967
-7.23325921429
-7.30361032486
-7.37364099435
-7.44332988498
-7.51265482895
-7.58159242983
-7.65011800601
-7.71820579551
-7.78582842254
-7.85295710339
-7.91956203377
-7.9856115555
-8.05107228876
-8.11590991328
-8.18008830333
-8.243569369
-8.30631382986
-8.36828041121
-8.4294258618
-8.4897058238
-8.54907369165
-8.60748052953
-8.66487642042
-8.72120929851
-8.77642443461
-8.83046604618
-8.88327623215
-8.93479420174
-8.98495831853
-9.03370486397
-9.08096717246
-9.12667723052
-9.17076540036
-9.21315897591
-9.25378415738
-9.29256560501
-9.32942457624
-9.36428142815
-9.39705558956
-9.4276629534
-9.45601822287
-9.48203575955
-9.50562669514
-9.52670073187
-9.54516758076
-9.56093430915
-9.57390670799
-9.58399062142
-9.59108950902
-9.59510607148
-9.59594355027
-9.5935029423
-9.58768444708
-9.57838966913
-9.56551861919
-9.54896991443
-9.52864391123
-9.50444056109
-9.47625849546
-9.44399794578
-9.40755892458
-9.36684043549
-9.32174322494
-9.27216773235
-9.21801321009
-9.15918041893
-9.09556909467
-9.0270769137
-8.95360159169
-8.8750393592
-8.79128256204
-8.70222034814
-8.60773874124
-8.50771568136
-8.4020221485
-8.29052069669
-8.17306027518
-8.04947703321
-7.91959250806
-7.78321217859
-7.64012980655
-7.49013848985
-7.33305378121
-7.16876198682
-6.99731232005
-6.81909149011
-6.63488260284
-6.44569030205
-6.25471870503
-1.55779024163
-1.60955373073
-1.75344878482
-1.9177410635
-2.07207419328
-2.21013245102
-2.33228600454
-2.44107520373
-2.53952013407
-2.63035085427
-2.71575909415
-2.79739759823
-2.87646784372
-2.95382184609
-3.0300515617
-3.10556048772
-3.18061935444
-3.25540642676
-3.3300362625
-3.4045808156
-3.4790840682
-3.55357110637
-3.62805558868
-3.70254361482
-3.77703754342
-3.85153671192
-3.92603966682
-4.00054393502
-4.07504666197
-4.1495457306
-4.22403875082
-4.29852311619
-4.37299701944
-4.44745842263
-4.52190495143
-4.5963350266
-4.67074688538
-4.7451381004
-4.81950684388
-4.89385121645
-4.96816845464
-5.04245618672
-5.11671211377
-5.19093299673
-5.26511575572
-5.33925746965
-5.41335427971
-5.48740232324
-5.56139792678
-5.63533645425
-5.70921303814
-5.78302300391
-5.85676072836
-5.93042021444
-6.00399555714
-6.07747996996
-6.15086601165
-6.22414645543
-6.29731319066
-6.37035730741
-6.44326978063
-6.51604077048
-6.58865950471
-6.6611149417
-6.73339518148
-6.80548737046
-6.87737831461
-6.94905386281
-7.02049864089
-7.09169675163
-7.16263140214
-7.23328450778
-7.30363718512
-7.3736695127
-7.44336020253
-7.51268705603
-7.58162672617
-7.65015449046
-7.71824456014
-7.78586962236
-7.85300078168
-7.919608198
-7.98566042567
-8.05112405628
-8.11596463907
-8.18014616416
-8.24363048386
-8.30637821621
-8.36834827983
-8.42949737464
-8.48978097129
-8.54915265845
-8.60756347373
-8.6649632866
-8.72130024963
-8.77651962859
-8.83056541439
-8.88338005238
-8.93490283356
-8.98507157696
-9.03382277231
-9.08109001986
-9.12680500953
-9.17089823326
-9.21329716849
-9.25392757853
-9.29271441488
-9.32957925377
-9.3644418381
-9.39722168991
-9.42783530737
-9.45619694557
-9.4822209335
-9.5058189972
-9.52690033596
-9.54537445053
-9.56114902264
-9.57412962564
-9.58422203185
-9.59133030683
-9.5953567871
-9.59620468436
-9.59377584068
-9.5879701972
-9.57868917184
-9.56583397988
-9.54930345955
-9.52899762148
-9.50481752813
-9.47666259946
-9.44443323987
-9.40803089078
-9.36735594613
-9.32231019309
-9.27279626566
-9.21871541315
-9.15997040598
-9.09646474948
-9.02810041049
-8.95477961286
-8.87640478614
-8.79287617562
-8.70409176835
-8.60994914653
-8.51034143445
-8.40515753344
-8.29428354053
-8.17759938963
-8.05497986703
-7.92629665355
-7.79142093956
-7.65023113522
-7.50262726392
-7.34855407213
-7.18803859836
-7.0212371486
-6.84850050809
-6.67031404726
-6.48701384033
-6.29914103007
-1.76186456907
-1.75688586228
-1.84086171614
-1.96165014418
-2.08829293677
-2.21097349239
-2.32587025897
-2.43206708502
-2.53035102011
-2.62214077043
-2.70890213738
-2.79191775152
-2.87222216166
-2.95060906803
-3.02766675203
-3.103819593
-3.17936762766
-3.2545193416
-3.32941664867
-3.40415437934
-3.47879514724
-3.55337884166
-3.62792994335
-3.70246389877
-3.77698846599
-3.85150782376
-3.92602369232
-4.00053613852
-4.07504386279
-4.14954572559
-4.22404035015
-4.29852557751
-4.37299971261
-4.44746117854
-4.52190775635
-4.59633768042
-4.67074940809
-4.74514060382
-4.81950920976
-4.89385351896
-4.96817091599
-5.04245871756
-5.11671467132
-5.19093575026
-5.26511866368
-5.33926050174
-5.41335761627
-5.48740593851
-5.5614017477
-5.63534060765
-5.70921745364
-5.7830275553
-5.85676563993
-5.93042557588
-6.00400128308
-6.07748617464
-6.15087276566
-6.22415366531
-6.29732097788
-6.37036577678
-6.44327888522
-6.51605058303
-6.5886700912
-6.66112622791
-6.73340723301
-6.8055002923
-6.87739208477
-6.9490685703
-7.02051441229
-7.09171355557
-7.16264927167
-7.23330355321
-7.30365742269
-7.37369098898
-7.443383012
-7.5127112424
-7.58165240022
-7.65018175094
-7.71827342906
-7.78590024118
-7.85303323595
-7.91964239669
-7.98569650347
-8.05116228294
-8.11600506494
-8.18018887403
-8.2436756056
-8.30642574104
-8.36839838584
-8.42955025788
-8.48983653957
-8.54921107731
-8.60762509289
-8.6650280767
-8.72136827988
-8.77659117611
-8.83064042668
-8.88345864306
-8.93498547958
-8.98515836192
-9.03391374668
-9.08118551515
-9.12690507927
-9.17100289391
-9.21340684192
-9.25404228642
-9.29283407784
-9.32970443405
-9.36457271803
-9.39735801369
-9.42797743552
-9.45634519274
-9.48237524196
-9.50597978896
-9.52706803466
-9.54554912955
-9.56133118141
-9.57431972983
-9.5844203407
-9.59153767769
-9.59557405995
-9.59643226233
-9.59401493994
-9.58822245138
-9.57895569833
-9.56611647575
-9.54960445988
-9.52931964066
-9.50516376686
-9.47703719184
-9.44484058104
-9.40847654773
-9.3678470171
-9.32285468594
-9.27340424746
-9.21939955739
-9.1607453942
-9.09734850885
-9.02911523473
-8.95595223855
-8.8777676264
-8.79446917458
-8.70596354672
-8.6121591595
-8.5129631343
-8.40828074403
-8.29801853839
-8.18208308396
-8.06038145615
-7.93282530554
-7.79933535527
-7.65984802896
-7.51433027444
-7.36279439601
-7.20532169954
-7.04207798071
-6.87331676937
-6.69928404284
-6.51995687367
-6.33499922617
-1.88499380637
-1.85953664674
-1.90889680549
-1.99905616312
-2.10398027122
-2.21330349452
-2.3211405202
-2.42436462377
-2.52203923706
-2.61443026995
-2.70230203544
-2.78654636183
-2.86800202147
-2.94738019056
-3.02524828278
-3.10204067052
-3.17808007627
-3.25360132395
-3.32877170457
-3.40370800171
-3.47849092642
-3.55317508999
-3.62779624775
-3.70237812914
-3.77693494568
-3.85147581436
-3.92600553559
-4.00052675178
-4.07503996791
-4.14954500577
-4.22404140768
-4.29852763792
-4.37300211866
-4.4474636492
-4.52191031468
-4.59634014305
-4.67075167084
-4.74514282298
-4.81951134898
-4.89385553808
-4.96817301195
-5.04246087967
-5.11671679913
-5.19093800879
-5.26512111469
-5.33926305614
-5.41336040369
-5.48740901425
-5.56140500744
-5.63534415761
-5.70922136833
-5.78303173402
-5.85677017972
-5.93043054031
-6.00400657229
-6.07749177788
-6.15087880231
-6.22416008224
-6.29732785062
-6.37037325622
-6.44328694612
-6.5160592178
-6.58867934924
-6.66113605513
-6.73341768772
-6.80551154297
-6.87740413985
-6.94908143963
-7.02052821223
-7.09172829087
-7.16266492528
-7.23332020986
-7.30367513354
-7.37370981969
-7.44340308451
-7.51273261385
-7.58167514301
-7.65020594134
-7.71829903358
-7.78592734694
-7.85306203574
-7.91967288158
-7.98572868808
-8.05119634752
-8.11604104629
-8.18022681167
-8.24371566238
-8.30646791553
-8.36844272887
-8.42959697839
-8.48988560541
-8.54926250541
-8.60767917331
-8.66508479256
-8.72142755637
-8.77665331838
-8.83070549301
-8.88352652038
-8.93505647709
-8.98523262593
-9.03399118875
-9.08126634397
-9.12698944166
-9.17109073788
-9.2134984929
-9.25413793864
-9.2929335081
-9.3298080128
-9.36468082803
-9.39747045881
-9.42809448726
-9.45646739598
-9.48250252332
-9.5061123054
-9.52720628709
-9.54569326402
-9.56148169246
-9.57447736016
-9.58458528685
-9.59171049412
-9.5957557819
-9.59662351107
-9.59421670457
-9.58843651441
-9.57918338692
-9.5663592443
-9.54986491332
-9.52960054135
-9.50546816177
-9.47736926226
-9.44520500123
-9.40887885474
-9.36829438117
-9.32335520334
-9.27396763201
-9.22003829806
-9.16147419862
-9.09818485848
-9.03008069892
-8.95707272543
-8.8790741714
-8.79599982026
-8.7077643884
-8.61428548099
-8.51548250622
-8.41127559573
-8.30158823568
-8.18634834026
-8.06548877892
-7.93895099235
-7.80669096906
-7.66868296448
-7.52493182309
-7.37548268957
-7.22042871342
-7.05991627684
-6.89412166844
-6.72317442072
-6.54698608393
-6.36519192877
-1.9590361126
-1.92798518923
-1.95791627668
-2.0276891182
-2.11685631421
-2.21573391063
-2.31761351553
-2.41808612805
-2.51501333275
-2.60776016925
-2.69649761616
-2.78176427331
-2.8642097005
-2.94445768924
-3.02304686589
-3.10041395156
-3.17689824948
-3.25275594813
-3.32817602384
-3.40329461471
-3.47820846611
-3.55298534853
-3.62767135799
-3.70229791236
-3.77688458504
-3.85144547772
-3.92598816325
-4.00051756386
-4.07503596435
-4.14954406718
-4.22404212969
-4.29852931121
-4.37300420579
-4.44746580247
-4.52191252736
-4.59634228908
-4.67075357525
-4.74514464293
-4.81951316955
-4.89385724501
-4.9681747066
-5.04246264073
-5.11671852522
-5.19093980457
-5.26512309312
-5.33926512027
-5.41336261671
-5.48741149395
-5.56140763406
-5.63534692681
-5.7092244029
-5.78303496896
-5.85677360315
-5.93043430967
-6.00401061409
-6.07749608408
-6.15088351112
-6.22416517584
-6.29733330623
-6.37037918534
-6.44329334003
-6.51606602491
-6.58868662683
-6.66114378555
-6.733425876
-6.80552034875
-6.87741360706
-6.94909151214
-7.02053896125
-7.09173976848
-7.16267711435
-7.23333317301
-7.30368891996
-7.37372445188
-7.44341866184
-7.51274919823
-7.58169277358
-7.65022468999
-7.71831885407
-7.78594824144
-7.85308421935
-7.91969643314
-7.98575354536
-8.05122259417
-8.11606872328
-8.1802559374
-8.24374642746
-8.30650035127
-8.36847677054
-8.42963284575
-8.48992341566
-8.54930218409
-8.60772089452
-8.66512863343
-8.72147341751
-8.77670149549
-8.83075620612
-8.88357957312
-8.93511196874
-8.98529076831
-9.03405189093
-9.08132974173
-9.1270557455
-9.17115983577
-9.21357054168
-9.25421327546
-9.2930119646
-9.32988963624
-9.36476603637
-9.39755920856
-9.4281868976
-9.45656396018
-9.48260322966
-9.50621718788
-9.5273159068
-9.54580786007
-9.56160160199
-9.57460333681
-9.58471757435
-9.59184948369
-9.59590267342
-9.59677916038
-9.59438185959
-9.58861280927
-9.57937244424
-9.56656255088
-9.55008496658
-9.5298401573
-9.5057301815
-9.47765772265
-9.44552473603
-9.40923528012
-9.36869450118
-9.32380720879
-9.27448094268
-9.22062485105
-9.16214829302
-9.09896325859
-9.0309839066
-8.95812537935
-8.88030549839
-8.79744533657
-8.70946690654
-8.61629577185
-8.51786160876
-8.41409744333
-8.30494096492
-8.19033664581
-8.0702379027
-7.94460818412
-7.81342805233
-7.67669718665
-7.53444308195
-7.38672799366
-7.23364975371
-7.07534219808
-6.9119536443
-6.74360092516
-6.57028479641
-6.3918885553
-2.00126927318
-1.96970434826
-1.98934905382
-2.04679613948
-2.12580834055
-2.21758750535
-2.31520572372
-2.41359357323
-2.50987553312
-2.60280986564
-2.69214266086
-2.77814682225
-2.86132302702
-2.94222248355
-3.0213569684
-3.09916160119
-3.17598633941
-3.25210245459
-3.32771479856
-3.40297409634
-3.47798919748
-3.55283781366
-3.62757391151
-3.70223414817
-3.77684510289
-3.8514217145
-3.92597454231
-4.00051033054
-4.07503278426
-4.14954332215
-4.22404264381
-4.29853054066
-4.37300582976
-4.447467486
-4.52191420504
-4.59634393462
-4.67075503244
-4.74514600568
-4.81951458305
-4.89385858068
-4.96817596262
-5.04246397559
-5.11671988788
-5.19094119343
-5.26512461425
-5.33926669494
-5.41336424323
-5.4874133311
-5.56140961504
-5.63534897903
-5.70922668128
-5.78303750213
-5.85677632422
-5.93043728138
-6.00401379241
-6.07749938259
-6.15088705408
-6.22416907265
-6.29733748785
-6.37038369295
-6.44329817725
-6.51607112907
-6.58869205572
-6.66114957198
-6.73343198464
-6.80552688586
-6.8774206715
-6.94909904909
-7.02054696716
-7.09174827933
-7.16268612711
-7.23334276241
-7.3036991558
-7.37373532209
-7.44343021858
-7.51276149696
-7.58170583433
-7.65023861416
-7.718333667
-7.78596387113
-7.85310076803
-7.91971399921
-7.98577204949
-8.05124206978
-8.11608924591
-8.18027749079
-8.24376914624
-8.30652430836
-8.36850184117
-8.42965917667
-8.48995122002
-8.54933133701
-8.60775141655
-8.66516069692
-8.72150693509
-8.77673659904
-8.83079317375
-8.88361827052
-8.9351523439
-8.98533308194
-9.03409610534
-9.08137583429
-9.12710398844
-9.1712101122
-9.21362282835
-9.25426797282
-9.29306907209
-9.3299489896
-9.36482802485
-9.39762402017
-9.42825445778
-9.45663459721
-9.48267705
-9.50629417015
-9.52739661273
-9.54589275348
-9.56169080702
-9.57469737859
-9.58481698471
-9.59195469848
-9.59601474835
-9.59689910381
-9.5945103095
-9.58875115468
-9.57952253655
-9.56672597652
-9.55026396856
-9.53003762148
-9.50594899918
-9.47790173115
-9.44579880124
-9.4095446494
-9.3690458243
-9.32420875587
-9.2749420343
-9.22115678055
-9.16276472404
-9.09968021411
-9.03182091651
-8.9591059393
-8.88145698962
-8.79880056264
-8.71106559077
-8.61818484381
-8.52009633837
-8.41674404239
-8.30807799393
-8.19405608111
-8.0746478647
-7.94983383014
-7.81961352749
-7.68400524372
-7.54305488684
-7.39683838213
-7.2454649056
-7.08907677199
-6.92783688063
-6.76191259351
-6.59144959895
-6.41660698614
-2.02051762266
-1.98942115198
-2.00464360419
-2.05631301042
-2.13036964265
-2.218571131
-2.31397581642
-2.41124479443
-2.50715705513
-2.60016817384
-2.68980378974
-2.77619458885
-2.85975935589
-2.94100827741
-3.02043699108
-3.09847865314
-3.1754884029
-3.25174529878
-3.32746250888
-3.40279865419
-3.47786913644
-3.55275698031
-3.62752065053
-3.70220019775
-3.77682359328
-3.85140865971
-3.92596710705
-4.00050642388
-4.07503110401
-4.14954302334
-4.22404301628
-4.29853128073
-4.37300684982
-4.44746853326
-4.52191517938
-4.59634492496
-4.67075596467
-4.74514687037
-4.81951551112
-4.89385948104
-4.96817676597
-5.04246485335
-5.11672084241
-5.19094211819
-5.26512559019
-5.33926773418
-5.41336530754
-5.48741454866
-5.56141097734
-5.63535035347
-5.70922817805
-5.78303921833
-5.85677815962
-5.93043923475
-6.00401587932
-6.07750154471
-6.15088940731
-6.22417171169
-6.29734032199
-6.37038670037
-6.44330139279
-6.51607450091
-6.58869563068
-6.66115342983
-6.73343605802
-6.8055311736
-6.87742527211
-6.94910395596
-7.02055216253
-7.09175380594
-7.16269199318
-7.23334900943
-7.30370584317
-7.37374242926
-7.44343775777
-7.51276949515
-7.5817142584
-7.65024756635
-7.71834328641
-7.78597408103
-7.85311152388
-7.9197253674
-7.98578398446
-8.05125459373
-8.11610244645
-8.1802912886
-8.24378358493
-8.30653956276
-8.36851783425
-8.4296758789
-8.48996880277
-8.54934974014
-8.60777061057
-8.6651809272
-8.72152816221
-8.77675870799
-8.83081639475
-8.88364260378
-8.93517767539
-8.9853596073
-9.03412386325
-9.08140471653
-9.12713414732
-9.17124154746
-9.21365540786
-9.25430205087
-9.29310478411
-9.3299860949
-9.36486681112
-9.39766478125
-9.4282969992
-9.45667909364
-9.48272381463
-9.50634319822
-9.52744836095
-9.54594775728
-9.56174900627
-9.57475916599
-9.58488323417
-9.59202588636
-9.59609161956
-9.59698281416
-9.59460166127
-9.58885128096
-9.57963328429
-9.56684898828
-9.55040125991
-9.53019216953
-9.50612389808
-9.47810065461
-9.4460265185
-9.4098063813
-9.36934792594
-9.324559335
-9.27535031322
-9.22163366473
-9.16332355263
-9.10033655359
-9.03259325185
-8.96001663134
-8.88253230663
-8.80007160626
-8.71256957203
-8.61996567768
-8.52220559805
-8.41924243124
-8.31103722509
-8.19755939002
-8.07879211851
-7.9547312045
-7.82539218655
-7.69081085425
-7.55105072498
-7.40620621459
-7.25640629339
-7.10181997417
-6.94265283433
-6.77914857899
-6.61159673354
-6.44037683027
-2.0205171326
-1.98942194789
-2.00464338589
-2.0563128788
-2.13036995525
-2.2185711613
-2.31397580643
-2.41124488067
-2.5071570767
-2.60016811564
-2.68980374914
-2.77619458033
-2.85975929384
-2.94100823031
-3.02043696303
-3.09847857338
-3.17548833897
-3.25174530645
-3.3274625
-3.40279865082
-3.47786919198
-3.55275700811
-3.62752068752
-3.70220033229
-3.77682371542
-3.85140875239
-3.92596728832
-4.00050663285
-4.07503130289
-4.14954328724
-4.22404325948
-4.29853146882
-4.37300711011
-4.44746879354
-4.52191535611
-4.59634517761
-4.67075631043
-4.74514719589
-4.81951588742
-4.89385990847
-4.96817716146
-5.04246531479
-5.11672139108
-5.19094260128
-5.26512604876
-5.33926826977
-5.4133658694
-5.48741518191
-5.5614117222
-5.63535109488
-5.70922896474
-5.78304015489
-5.85677915028
-5.93044023079
-6.00401696463
-6.07750268795
-6.1508906209
-6.2241730821
-6.29734180601
-6.37038825024
-6.44330303959
-6.51607618144
-6.58869733498
-6.66115528699
-6.73343807226
-6.8055332665
-6.87742745912
-6.94910622917
-7.02055451058
-7.09175630999
-7.16269468068
-7.23335186251
-7.3037088915
-7.3737456733
-7.44344119962
-7.51277316292
-7.58171810007
-7.65025160755
-7.71834767624
-7.78597878251
-7.85311640866
-7.91973046269
-7.98578929644
-8.05126012596
-8.11610827492
-8.18029732521
-8.24378977805
-8.30654609825
-8.3685247139
-8.42968295982
-8.48997616554
-8.54935740211
-8.60777851185
-8.66518925645
-8.72153696
-8.77676775408
-8.8308258234
-8.88365255929
-8.93518801115
-8.98537038199
-9.03413508389
-9.08141621187
-9.12714609191
-9.17125412197
-9.21366837435
-9.25431550756
-9.29311902376
-9.330000958
-9.36488235463
-9.39768133063
-9.42831445949
-9.45669750057
-9.48274356268
-9.50636435393
-9.52747116011
-9.54597266808
-9.56177612769
-9.57478890929
-9.58491648264
-9.59206303837
-9.59613314172
-9.59702997974
-9.5946555512
-9.58891285124
-9.57970426793
-9.56693124132
-9.55049674644
-9.53030373338
-9.50625468122
-9.47825421422
-9.44620764594
-9.41002055643
-9.36960135805
-9.32485984432
-9.27570704418
-9.22205729912
-9.16382733943
-9.10093604712
-9.03330638548
-8.96086520716
-8.88354216613
-8.801272878
-8.71399806884
-8.62166394979
-8.52422361637
-8.42163788679
-8.31387822381
-8.20092557233
-8.08277544023
-7.95943878445
-7.83094610894
-7.69735225962
-7.55873972129
-7.41522659128
-7.26697002636
-7.11417493437
-6.95710097465
-6.79607021327
-6.6314882645
-6.46388327171
-2.00126789353
-1.96970649143
-1.98934849861
-2.04679581395
-2.1258092064
-2.21758762421
-2.31520575033
-2.41359382449
-2.50987561463
-2.6028097297
-2.69214255584
-2.77814676193
-2.86132282796
-2.94222231181
-3.02135686746
-3.09916140455
-3.17598619152
-3.25210248105
-3.32771477855
-3.4029741022
-3.47798936488
-3.55283791067
-3.62757402996
-3.70223451241
-3.77684543448
-3.85142198887
-3.92597506813
-4.00051093998
-4.07503339241
-4.14954412396
-4.2240433887
-4.29853113401
-4.37300660343
-4.44746826653
-4.52191479553
-4.59634472686
-4.67075604675
-4.74514697253
-4.81951570491
-4.89385984724
-4.96817713484
-5.04246530677
-5.11672142885
-5.1909425747
-5.26512599173
-5.33926831839
-5.41336594113
-5.48741519617
-5.56141175616
-5.63535111964
-5.70922896753
-5.78304023064
-5.85677923462
-5.93044025895
-6.00401703669
-6.07750279963
-6.15089067828
-6.22417311537
-6.29734182341
-6.37038822945
-6.44330303373
-6.51607615513
-6.58869721341
-6.6611551529
-6.73343798555
-6.80553315092
-6.87742726107
-6.9491059217
-7.0205540992
-7.09175589936
-7.16269431501
-7.23335147744
-7.3037084579
-7.3737451581
-7.4434405748
-7.51277249395
-7.58171739369
-7.6502508143
-7.7183468554
-7.78597792444
-7.85311540714
-7.91972935262
-7.98578807642
-8.05125868399
-8.11610665599
-8.18029555161
-8.24378775056
-8.30654390576
-8.36852240056
-8.42968037485
-8.48997335026
-8.54935442349
-8.60777520839
-8.66518568302
-8.72153324669
-8.77676372393
-8.83082148226
-8.88364807797
-8.93518323292
-8.98536526852
-9.03412972701
-9.08141042793
-9.12713988191
-9.17124774594
-9.21366170168
-9.25430843373
-9.29311183102
-9.32999357956
-9.36487463612
-9.39767361162
-9.42830681073
-9.45668984473
-9.48273625511
-9.50635761628
-9.52746501214
-9.54596748639
-9.56177220465
-9.57478653606
-9.58491641796
-9.59206588016
-9.59613935282
-9.59704068618
-9.59467193833
-9.58893575983
-9.57973527667
-9.56697250219
-9.55055033809
-9.53037234106
-9.50634150563
-9.47836278511
-9.44634266351
-9.41018763159
-9.36980678974
-9.32511150117
-9.27601429378
-9.22243083213
-9.16428019896
-9.10148399267
-9.03396763167
-8.96166147641
-8.88449944553
-8.80242161016
-8.7153740625
-8.62330943822
-8.526188508
-8.42398054503
-8.31666670638
-8.20423950224
-8.08670701689
-7.96409576993
-7.83645219259
-7.70385119206
-7.56639770075
-7.4242352026
-7.27755366247
-7.12659683099
-6.97167587084
-6.81317897183
-6.65159272767
-6.48753038228
-1.95903416641
-1.92798804557
-1.95791564723
-2.02768878213
-2.11685754721
-2.21573422397
-2.31761374929
-2.41808653172
-2.51501347294
-2.60776000559
-2.6964974593
-2.78176411195
-2.8642093583
-2.94445737794
-3.02304668577
-3.10041370489
-3.1768980922
-3.25275598516
-3.32817598465
-3.4032946319
-3.47820870869
-3.55298553216
-3.62767160081
-3.70229846876
-3.77688511696
-3.85144599493
-3.92598902891
-4.00051854202
-4.07503697643
-4.14954534042
-4.2240433122
-4.29853028905
-4.37300540074
-4.44746703337
-4.52191360391