/*--------------------------------*- C++ -*----------------------------------*\
| =========                 |                                                 |
| \\      /  F ield         | OpenFOAM: The Open Source CFD Toolbox           |
|  \\    /   O peration     | Version:  2106                                  |
|   \\  /    A nd           | Website:  www.openfoam.com                      |
|    \\/     M anipulation  |                                                 |
\*---------------------------------------------------------------------------*/
FoamFile
{
    version     2.0;
    format      ascii;
    arch        "LSB;label=32;scalar=64";
    class       surfaceScalarField;
    location    "0.17";
    object      phi;
}
// * * * * * * * * * * * * * * * * * * * * * * * * * * * * * * * * * * * * * //

dimensions      [0 3 -1 0 0 0 0];

oriented        oriented;

internalField   nonuniform List<scalar> 
18840
(
3.37543044925e-05
1.62456955176e-05
2.25359626694e-05
1.12183417874e-05
1.63023783404e-05
6.23358445669e-06
1.28098256988e-05
3.49255285638e-06
1.08065807366e-05
2.00324504804e-06
9.60477010575e-06
1.20181079744e-06
8.85167976169e-06
7.53090494374e-07
8.36503212594e-06
4.86647837381e-07
8.04518772986e-06
3.1984455414e-07
7.83374356445e-06
2.11444166905e-07
7.69428356028e-06
1.39460029065e-07
7.60308180438e-06
9.12017609388e-08
7.54426678184e-06
5.88149332794e-08
7.50707838593e-06
3.71882597083e-08
7.48419039074e-06
2.28878804319e-08
7.47062489737e-06
1.35654157246e-08
7.46302240947e-06
7.60243465983e-09
7.45913975387e-06
3.88267928218e-09
7.45750014797e-06
1.63963811317e-09
7.45714712933e-06
3.53006926085e-10
7.45748453657e-06
-3.37379205432e-10
7.45813568627e-06
-6.51119300696e-10
7.45888770575e-06
-7.52116364583e-10
7.45962145143e-06
-7.33849321885e-10
7.46027809673e-06
-6.56684473745e-10
7.46083476318e-06
-5.5674457097e-10
7.46128916747e-06
-4.54461344052e-10
7.46164969456e-06
-3.60537308461e-10
7.46192914831e-06
-2.79548266659e-10
7.46214161127e-06
-2.12542782903e-10
7.46230054483e-06
-1.5890773941e-10
7.4624175462e-06
-1.17061548853e-10
7.46250243286e-06
-8.49992294083e-11
7.46256332666e-06
-6.09165048415e-11
7.46260639933e-06
-4.31260483538e-11
7.46263643964e-06
-3.00751036742e-11
7.46265724682e-06
-2.06927980845e-11
7.46267143323e-06
-1.41110067387e-11
7.46268090061e-06
-9.46779517441e-12
7.46268725481e-06
-6.25898105062e-12
7.46269148301e-06
-4.16099608028e-12
7.46269419559e-06
-2.73419771765e-12
7.46269599407e-06
-1.72907741446e-12
7.46269710154e-06
-1.05357379057e-12
7.46269767487e-06
-6.71414684433e-13
7.46269801764e-06
-4.27347238473e-13
7.46269829538e-06
-3.56896915363e-13
7.46269844966e-06
-3.12455460624e-13
7.46269862469e-06
-2.29493534694e-13
7.46269888529e-06
-2.21060183885e-13
7.46269908313e-06
-2.41012316394e-13
7.46269929771e-06
-2.34936590205e-13
7.46269963925e-06
-3.08970191199e-13
7.46269999228e-06
-3.89594895031e-13
7.46270040383e-06
-3.75037223962e-13
7.46270096304e-06
-3.84273140371e-13
7.46270150652e-06
-4.28585601072e-13
7.46270201474e-06
-4.27344427873e-13
7.46270260061e-06
-4.633800536e-13
7.46270317004e-06
-5.49856426547e-13
7.46270371371e-06
-5.93241763462e-13
7.46270435771e-06
-6.46613837443e-13
7.46270505611e-06
-7.09563170206e-13
7.46270578213e-06
-7.03882963111e-13
7.46270658847e-06
-6.95946533154e-13
7.46270737028e-06
-7.32101451945e-13
7.46270809556e-06
-7.54288777607e-13
7.46270887429e-06
-8.05703344173e-13
7.46270967201e-06
-9.01635507338e-13
7.46271047197e-06
-9.52206873443e-13
7.46271139063e-06
-9.76648930563e-13
7.46271239369e-06
-1.00753574254e-12
7.46271339552e-06
-9.91432926142e-13
7.46271443405e-06
-9.84712590499e-13
7.46271547536e-06
-1.06950929112e-12
7.46271648942e-06
-1.18483540585e-12
7.46271757122e-06
-1.28000856094e-12
7.46271873697e-06
-1.34852928253e-12
7.46271997176e-06
-1.37131508994e-12
7.46272132501e-06
-1.39136854812e-12
7.46272273526e-06
-1.42854957385e-12
7.46272417024e-06
-1.45240669455e-12
7.46272572719e-06
-1.53240249975e-12
7.46272734395e-06
-1.66219698122e-12
7.46272895235e-06
-1.69145409914e-12
7.46273067606e-06
-1.65125944808e-12
7.4627324626e-06
-1.65145279681e-12
7.46273420304e-06
-1.67049552808e-12
7.46273602437e-06
-1.76568879979e-12
7.4627379173e-06
-1.92809192613e-12
7.46273981345e-06
-1.97149678336e-12
7.46274184613e-06
-1.94980806625e-12
7.46274395822e-06
-2.00668800566e-12
7.46274606181e-06
-2.06028050278e-12
7.4627483632e-06
-2.14123312834e-12
7.46275082452e-06
-2.32353875331e-12
7.46275324345e-06
-2.45723060191e-12
7.46275578725e-06
-2.57225212838e-12
7.46275849621e-06
-2.80350130633e-12
7.46276125239e-06
-2.98348282208e-12
7.46276433937e-06
-3.10629377678e-12
7.46276791566e-06
-3.47820141813e-12
7.46277176689e-06
-4.01167182162e-12
7.46277608203e-06
-4.54597683329e-12
7.46278108175e-06
-5.20081427703e-12
7.46278666414e-06
-5.87057889252e-12
7.46279315714e-06
-6.56456553066e-12
7.46280091616e-06
-7.62646176041e-12
7.46280987481e-06
-8.9845780451e-12
7.46282051837e-06
-1.05356726301e-11
7.46283349159e-06
-1.26655138349e-11
7.46284897269e-06
-1.54182817982e-11
7.46286760207e-06
-1.86604432268e-11
7.4628904333e-06
-2.27462434211e-11
7.46291810107e-06
-2.78173246305e-11
7.46295178361e-06
-3.38598582652e-11
7.46299335319e-06
-4.14522890303e-11
7.4630444435e-06
-5.10393064014e-11
7.46310723642e-06
-6.27800671488e-11
7.46318480354e-06
-7.7346894657e-11
7.46328037307e-06
-9.54842225285e-11
7.4633982791e-06
-1.17944544727e-10
7.46354458442e-06
-1.46243377231e-10
7.46372760948e-06
-1.83102270274e-10
7.46395448827e-06
-2.26858347709e-10
7.46423249723e-06
-2.77654068267e-10
7.46457591452e-06
-3.43444064943e-10
7.46500062983e-06
-4.25217744337e-10
7.46552677901e-06
-5.2630542467e-10
7.4661786763e-06
-6.51756633912e-10
7.46698587222e-06
-8.07174434206e-10
7.46798572493e-06
-9.99730047781e-10
7.46922437901e-06
-1.23860140529e-09
7.47075874091e-06
-1.53463941024e-09
7.47266004405e-06
-1.90155598883e-09
7.47501636032e-06
-2.35660892905e-09
7.47793702331e-06
-2.92088005284e-09
7.4815586977e-06
-3.62127886985e-09
7.48605094807e-06
-4.49172866572e-09
7.4916250439e-06
-5.57396482307e-09
7.49854544559e-06
-6.9204141628e-09
7.5071432373e-06
-8.59775394107e-09
7.51783361365e-06
-1.06904832352e-08
7.53113971011e-06
-1.33062402761e-08
7.54772361294e-06
-1.65837204876e-08
7.56842599016e-06
-2.0702322788e-08
7.59432280454e-06
-2.58966900783e-08
7.62680155502e-06
-3.24783334838e-08
7.66766760077e-06
-4.08659927043e-08
7.71930153743e-06
-5.16340092803e-08
7.78489577046e-06
-6.55939715643e-08
7.86884110202e-06
-8.3944914735e-08
7.97743928843e-06
-1.08597965871e-07
8.12044766228e-06
-1.43008174356e-07
8.31502892827e-06
-1.94581033981e-07
8.59692519601e-06
-2.81896463154e-07
9.05366638791e-06
-4.56741242307e-07
9.93038933345e-06
-8.76722749432e-07
1.19836144523e-05
-2.0532252153e-06
-5.57782523994e-06
1.75614401253e-05
5.01388819499e-05
1.61068138568e-05
4.41591296322e-05
1.71980942901e-05
3.77598740727e-05
1.26328401177e-05
3.26495150724e-05
8.60291221169e-06
2.8946582824e-05
5.70617753816e-06
2.63676040917e-05
3.78078985571e-06
2.45938863528e-05
2.5268084343e-06
2.33783995654e-05
1.70213478645e-06
2.25473252732e-05
1.15091909604e-06
2.19811583258e-05
7.77611145437e-07
2.15978059071e-05
5.2281233663e-07
2.13405428859e-05
3.48464634532e-07
2.11699453499e-05
2.29412283723e-07
2.10585375724e-05
1.48595831177e-07
2.09871864987e-05
9.42388303223e-08
2.0942623066e-05
5.81288489384e-08
2.09157086228e-05
3.45168517304e-08
2.0900208931e-05
1.9382370005e-08
2.08919216409e-05
9.9270196333e-09
2.08880566518e-05
4.21799484533e-09
2.08867871036e-05
9.32066273209e-10
2.08869523115e-05
-8.16385834356e-10
2.08878308602e-05
-1.630795366e-09
2.08889896389e-05
-1.89281965738e-09
2.08901835226e-05
-1.85061879171e-09
2.08912846487e-05
-1.65793092626e-09
2.08922367087e-05
-1.40668891289e-09
2.08930251448e-05
-1.1490347579e-09
2.08936575862e-05
-9.12045209814e-10
2.08941522889e-05
-7.07422449153e-10
2.08945314974e-05
-5.3818154289e-10
2.08948170641e-05
-4.02661375667e-10
2.08950286575e-05
-2.96746570989e-10
2.08951833583e-05
-2.15625600256e-10
2.0895294988e-05
-1.54662588015e-10
2.08953743955e-05
-1.09514147366e-10
2.08954302975e-05
-7.65322241292e-11
2.08954692225e-05
-5.28670862009e-11
2.08954958541e-05
-3.60766577253e-11
2.08955139182e-05
-2.4247908743e-11
2.08955260586e-05
-1.61046689282e-11
2.08955338744e-05
-1.05589656891e-11
2.08955387888e-05
-6.75677830604e-12
2.08955419696e-05
-4.26909172897e-12
2.08955438238e-05
-2.6940745206e-12
2.08955448258e-05
-1.64463844175e-12
2.08955453969e-05
-9.65158560441e-13
2.08955456839e-05
-6.58642758735e-13
2.08955458217e-05
-4.61220359496e-13
2.08955459985e-05
-3.57629129665e-13
2.08955461028e-05
-3.72817996171e-13
2.08955461454e-05
-3.67813673767e-13
2.08955463444e-05
-3.82920821767e-13
2.08955466167e-05
-4.76330501205e-13
2.08955468821e-05
-5.27750406431e-13
2.0895547279e-05
-5.60087113919e-13
2.08955477067e-05
-6.62836711191e-13
2.0895548058e-05
-7.50153245513e-13
2.08955484724e-05
-8.13892972104e-13
2.0895548921e-05
-9.38413882553e-13
2.08955493249e-05
-1.0488558665e-12
2.08955498306e-05
-1.11270258132e-12
2.08955504282e-05
-1.1875043312e-12
2.08955510031e-05
-1.23818268601e-12
2.0895551617e-05
-1.28313570412e-12
2.08955522355e-05
-1.39083410978e-12
2.08955527766e-05
-1.48664018865e-12
2.08955533548e-05
-1.53117262902e-12
2.08955539912e-05
-1.5942336332e-12
2.08955546142e-05
-1.66040438282e-12
2.08955553309e-05
-1.71460758811e-12
2.08955561489e-05
-1.81722454775e-12
2.08955569182e-05
-1.92084369764e-12
2.08955576697e-05
-1.97782105459e-12
2.08955584576e-05
-2.05390606579e-12
2.08955592432e-05
-2.17012802352e-12
2.08955600911e-05
-2.30186310974e-12
2.0895561028e-05
-2.44426589663e-12
2.08955620078e-05
-2.54327585833e-12
2.08955630955e-05
-2.59438479116e-12
2.08955642606e-05
-2.65366770684e-12
2.08955654034e-05
-2.68320352747e-12
2.08955666528e-05
-2.70847502356e-12
2.08955680481e-05
-2.84760877146e-12
2.08955694452e-05
-3.01673388288e-12
2.08955709236e-05
-3.09909306769e-12
2.0895572502e-05
-3.17236068569e-12
2.08955740262e-05
-3.25311694574e-12
2.08955756544e-05
-3.33318052735e-12
2.08955774874e-05
-3.49907805306e-12
2.08955793407e-05
-3.68746624248e-12
2.08955813128e-05
-3.84572156863e-12
2.08955835025e-05
-4.10039554935e-12
2.08955857762e-05
-4.38930633626e-12
2.08955883114e-05
-4.62480114335e-12
2.08955912269e-05
-4.98561778547e-12
2.08955942771e-05
-5.47813439967e-12
2.08955976139e-05
-6.01291079874e-12
2.08956015196e-05
-6.75555716739e-12
2.08956058271e-05
-7.70574559492e-12
2.08956107137e-05
-8.60640149972e-12
2.08956166356e-05
-9.66304708622e-12
2.08956235448e-05
-1.10414214022e-11
2.08956316315e-05
-1.26961781986e-11
2.08956414387e-05
-1.47948034143e-11
2.08956530452e-05
-1.74606505363e-11
2.08956668322e-05
-2.06011597618e-11
2.08956836608e-05
-2.44450793732e-11
2.08957037777e-05
-2.91677938266e-11
2.08957273379e-05
-3.43583234083e-11
2.08957571352e-05
-4.22926911916e-11
2.08957941528e-05
-5.21196130876e-11
2.08958395672e-05
-6.39494696008e-11
2.08958957405e-05
-7.85354147006e-11
2.08959649444e-05
-9.67475003888e-11
2.08960499807e-05
-1.19192432797e-10
2.0896155208e-05
-1.46846127417e-10
2.08962854466e-05
-1.8117272868e-10
2.08964462861e-05
-2.23660953026e-10
2.08966452537e-05
-2.76282686719e-10
2.08968912114e-05
-3.41529825793e-10
2.08971950709e-05
-4.22098176819e-10
2.0897570779e-05
-5.21721196296e-10
2.08980335432e-05
-6.45446805878e-10
2.08986057318e-05
-7.99315922887e-10
2.08993182987e-05
-9.90553037312e-10
2.09002030315e-05
-1.2279344165e-09
2.0901299856e-05
-1.52193471536e-09
2.09026591795e-05
-1.88575207556e-09
2.0904343826e-05
-2.3363572074e-09
2.09064309556e-05
-2.89456325515e-09
2.09090167602e-05
-3.58598361839e-09
2.09122207876e-05
-4.44276626884e-09
2.09161906477e-05
-5.50464468236e-09
2.09211101071e-05
-6.82100288334e-09
2.09272072747e-05
-8.45357794503e-09
2.09347648061e-05
-1.04788146155e-08
2.09441350788e-05
-1.29922023699e-08
2.09557569582e-05
-1.61137850459e-08
2.09701770746e-05
-1.99938897691e-08
2.09880782448e-05
-2.48212417255e-08
2.10103153527e-05
-3.08343162414e-08
2.10379609385e-05
-3.83356542943e-08
2.10723653943e-05
-4.77106954933e-08
2.11152370463e-05
-5.94550568781e-08
2.1168746167e-05
-7.4211325886e-08
2.12356698347e-05
-9.28207874765e-08
2.13195930472e-05
-1.16401605348e-07
2.14251933584e-05
-1.46466084824e-07
2.15586664638e-05
-1.8510707039e-07
2.17283881924e-05
-2.35315872847e-07
2.19460079796e-05
-3.01565045988e-07
2.22283833628e-05
-3.90973550222e-07
2.26012319514e-05
-5.15856525683e-07
2.31063963097e-05
-6.99745010773e-07
2.38166358772e-05
-9.9213537717e-07
2.48638793655e-05
-1.50398447966e-06
2.64790525618e-05
-2.49189584529e-06
2.89827201401e-05
-4.5568928702e-06
-8.93179569969e-06
3.23366905077e-05
5.3584426781e-05
1.2522387223e-05
5.29166011464e-05
1.7865920169e-05
4.96393018035e-05
1.59101394963e-05
4.58382176228e-05
1.24039966588e-05
4.24428753221e-05
9.10152003603e-06
3.97331602506e-05
6.49050523639e-06
3.7691246493e-05
4.56872243847e-06
3.62011682439e-05
3.19221311013e-06
3.51355950178e-05
2.21649250902e-06
3.43848460189e-05
1.5283602173e-06
3.38626604302e-05
1.04499784936e-06
3.35040080053e-05
7.07116926194e-07
3.32609639381e-05
4.72456221848e-07
3.30987218645e-05
3.10837761869e-07
3.29922918547e-05
2.00668721764e-07
3.29239207779e-05
1.26499920432e-07
3.28811309877e-05
7.73066357501e-08
3.28552525022e-05
4.52608128809e-08
3.28403362189e-05
2.48433664621e-08
3.28323565318e-05
1.2197710743e-08
3.28286308257e-05
4.65765391967e-09
3.2827407163e-05
4.07174206798e-10
3.28275669757e-05
-1.79069166779e-09
3.28284134541e-05
-2.73945962802e-09
3.28295301664e-05
-2.96741114351e-09
3.28306806174e-05
-2.80840449346e-09
3.28317415757e-05
-2.46777541367e-09
3.28326590388e-05
-2.06655015676e-09
3.28334188712e-05
-1.67183372538e-09
3.28340283153e-05
-1.31697726743e-09
3.28345051891e-05
-1.01517741401e-09
3.28348708297e-05
-7.68324809174e-10
3.28351461617e-05
-5.72189254215e-10
3.28353503553e-05
-4.19873426449e-10
3.28354997536e-05
-3.03957042247e-10
3.2835607474e-05
-2.1723708316e-10
3.28356841819e-05
-1.53271059058e-10
3.28357382517e-05
-1.06819091517e-10
3.28357757701e-05
-7.3556947633e-11
3.28358014584e-05
-4.99536471553e-11
3.28358189567e-05
-3.34595666348e-11
3.28358306127e-05
-2.21420587522e-11
3.28358381774e-05
-1.44104799913e-11
3.28358430998e-05
-9.2173193227e-12
3.28358461702e-05
-5.84548604279e-12
3.28358479586e-05
-3.63037509198e-12
3.28358491325e-05
-2.19501206617e-12
3.28358498114e-05
-1.33944483693e-12
3.28358500494e-05
-8.02069743786e-13
3.28358501345e-05
-4.57788386329e-13
3.28358501883e-05
-4.09957745138e-13
3.2835850129e-05
-3.98386034528e-13
3.28358501726e-05
-3.83127052344e-13
3.28358503427e-05
-4.56278843079e-13
3.28358504731e-05
-5.52405913887e-13
3.28358506762e-05
-6.32019172267e-13
3.28358509678e-05
-7.75821865373e-13
3.28358511934e-05
-9.38450121114e-13
3.28358514366e-05
-1.05211258251e-12
3.28358517622e-05
-1.20544800463e-12
3.28358520584e-05
-1.34385466245e-12
3.28358524133e-05
-1.40987411186e-12
3.28358528651e-05
-1.47532948157e-12
3.28358532673e-05
-1.56893020903e-12
3.28358536675e-05
-1.6814707861e-12
3.28358541174e-05
-1.8380918764e-12
3.28358545031e-05
-1.97868590387e-12
3.28358548731e-05
-2.03883836301e-12
3.2835855308e-05
-2.08802713395e-12
3.28358557283e-05
-2.15849905679e-12
3.2835856181e-05
-2.22372510683e-12
3.28358567404e-05
-2.34505398787e-12
3.28358572746e-05
-2.51536471847e-12
3.28358577515e-05
-2.66309351157e-12
3.28358582563e-05
-2.7961775175e-12
3.2835858767e-05
-2.93413539487e-12
3.28358593266e-05
-3.05825679581e-12
3.28358599995e-05
-3.18570022048e-12
3.28358607095e-05
-3.29361100406e-12
3.2835861469e-05
-3.36402145822e-12
3.28358623054e-05
-3.47213328883e-12
3.28358631063e-05
-3.59875734039e-12
3.28358639569e-05
-3.67433453925e-12
3.28358650016e-05
-3.79036854426e-12
3.28358660985e-05
-3.97006374739e-12
3.28358672266e-05
-4.12224983507e-12
3.28358684746e-05
-4.30484476135e-12
3.28358697025e-05
-4.52587709936e-12
3.28358709838e-05
-4.690110552e-12
3.28358725e-05
-4.8938118261e-12
3.28358740822e-05
-5.19355079334e-12
3.28358757552e-05
-5.51050207092e-12
3.28358777479e-05
-5.93879182535e-12
3.28358799333e-05
-6.50033063681e-12
3.28358823237e-05
-7.06784127605e-12
3.28358851609e-05
-7.76637727246e-12
3.28358882732e-05
-8.67510916165e-12
3.28358916463e-05
-9.6281199719e-12
3.28358956056e-05
-1.07067101799e-11
3.28359004383e-05
-1.25621204781e-11
3.28359060878e-05
-1.45852169851e-11
3.2835913054e-05
-1.68902691105e-11
3.28359215161e-05
-1.97055141455e-11
3.28359316469e-05
-2.3088468753e-11
3.28359441559e-05
-2.72676123128e-11
3.28359594317e-05
-3.25937142161e-11
3.28359779116e-05
-3.9158970945e-11
3.28360008639e-05
-4.72594125445e-11
3.28360294502e-05
-5.74393842771e-11
3.28360650822e-05
-7.0026117813e-11
3.28361083444e-05
-8.5584431127e-11
3.28361613438e-05
-1.05045231549e-10
3.28362262829e-05
-1.29111948897e-10
3.28363064364e-05
-1.58739247905e-10
3.28364055105e-05
-1.95557678854e-10
3.28365275006e-05
-2.41210869513e-10
3.2836678222e-05
-2.97599361512e-10
3.28368647423e-05
-3.67486388603e-10
3.28370951232e-05
-4.54076121396e-10
3.28373800167e-05
-5.61252999426e-10
3.28377325325e-05
-6.94031026801e-10
3.28381684754e-05
-8.58269423605e-10
3.28387082496e-05
-1.06142966897e-09
3.28393767893e-05
-1.31353263456e-09
3.28402037374e-05
-1.62638231189e-09
3.2841226748e-05
-2.01408238897e-09
3.28424935468e-05
-2.49471048424e-09
3.28440621637e-05
-3.09041860366e-09
3.28460045169e-05
-3.82825088394e-09
3.2848410361e-05
-4.74214978144e-09
3.28513901085e-05
-5.87437966757e-09
3.28550807485e-05
-7.27698490165e-09
3.28596527175e-05
-9.01486416633e-09
3.28653165996e-05
-1.11686998417e-08
3.28723340744e-05
-1.38385010353e-08
3.28810303911e-05
-1.71491820759e-08
3.28918084493e-05
-2.12562860671e-08
3.29051695977e-05
-2.63533379882e-08
3.2921738256e-05
-3.26825182341e-08
3.29422918555e-05
-4.05474912708e-08
3.29678001952e-05
-5.03296955751e-08
3.29994760277e-05
-6.25102026571e-08
3.30388390794e-05
-7.76984198229e-08
3.30877986528e-05
-9.66701919456e-08
3.31487644186e-05
-1.20420561958e-07
3.32247901539e-05
-1.50236565305e-07
3.33197689918e-05
-1.87799603123e-07
3.34387043076e-05
-2.35336833846e-07
3.35880883422e-05
-2.95849707561e-07
3.37764542799e-05
-3.73472638418e-07
3.40152079867e-05
-4.74069489419e-07
3.43199275887e-05
-6.06284426366e-07
3.47124548036e-05
-7.83500210124e-07
3.52242979661e-05
-1.02769989014e-06
3.59019567211e-05
-1.37740388375e-06
3.6814055626e-05
-1.90423347668e-06
3.80560860214e-05
-2.74601504717e-06
3.97304594957e-05
-4.1662698828e-06
4.18181160581e-05
-6.64454928394e-06
-1.08825059445e-05
4.3768826063e-05
5.35705200666e-05
8.95186719979e-06
5.55863059476e-05
1.58501345741e-05
5.52410591637e-05
1.62553863164e-05
5.35976163715e-05
1.40474397046e-05
5.15429066036e-05
1.11562299488e-05
4.95819413204e-05
8.45147076733e-06
4.79262523646e-05
6.22441171412e-06
4.66200410884e-05
4.49842446158e-06
4.56322353158e-05
3.20429841386e-06
4.49066892516e-05
2.25390637774e-06
4.43854438992e-05
1.56624315655e-06
4.40178345079e-05
1.07472618673e-06
4.3762913975e-05
7.27376642156e-07
4.35890464697e-05
4.84705162946e-07
4.34725032255e-05
3.1721183734e-07
4.33958702748e-05
2.03132834357e-07
4.33465923818e-05
1.26584554383e-07
4.33157583691e-05
7.60947959298e-08
4.32971371015e-05
4.34646501472e-08
4.32864357547e-05
2.2899096695e-08
4.32807426251e-05
1.03506726984e-08
4.32781201194e-05
3.0295427086e-09
4.32772938232e-05
-9.64453500293e-10
4.32774587624e-05
-2.90452598767e-09
4.32781107303e-05
-3.61948784824e-09
4.3278949525e-05
-3.64718978476e-09
4.32798053424e-05
-3.32365092171e-09
4.3280590615e-05
-2.85189502561e-09
4.32812675614e-05
-2.34873769033e-09
4.328182683e-05
-1.87631321144e-09
4.32822746934e-05
-1.46318205872e-09
4.32826247999e-05
-1.11843219082e-09
4.32828928917e-05
-8.4032717089e-10
4.32830946158e-05
-6.21703284199e-10
4.3283244221e-05
-4.53522596839e-10
4.32833535322e-05
-3.26539152106e-10
4.32834322908e-05
-2.32116946598e-10
4.32834884776e-05
-1.62950279395e-10
4.32835280265e-05
-1.13042012326e-10
4.32835554308e-05
-7.74140532025e-11
4.32835743163e-05
-5.22812340941e-11
4.32835871372e-05
-3.48568765924e-11
4.32835955669e-05
-2.28923746248e-11
4.32836010854e-05
-1.47580570523e-11
4.32836046231e-05
-9.37602637818e-12
4.32836066917e-05
-5.83116744364e-12
4.32836079039e-05
-3.48510413394e-12
4.32836086227e-05
-2.04066016224e-12
4.32836089166e-05
-1.18336731728e-12
4.32836090717e-05
-6.62470441121e-13
4.32836091694e-05
-4.58198274749e-13
4.32836091211e-05
-4.06110518853e-13
4.32836090723e-05
-3.58832387193e-13
4.32836091473e-05
-3.91239479332e-13
4.32836091819e-05
-5.08536018607e-13
4.32836092032e-05
-6.134787311e-13
4.32836093188e-05
-7.57056044155e-13
4.32836093953e-05
-9.69764932024e-13
4.32836094438e-05
-1.12525732674e-12
4.32836095703e-05
-1.2714739867e-12
4.32836096862e-05
-1.41643553468e-12
4.32836097952e-05
-1.47848326569e-12
4.32836099781e-05
-1.53774198827e-12
4.3283610118e-05
-1.67313297055e-12
4.32836102061e-05
-1.82461021419e-12
4.32836103595e-05
-1.98562534523e-12
4.32836104842e-05
-2.14466086823e-12
4.32836105309e-05
-2.22451593966e-12
4.328361061e-05
-2.27200796235e-12
4.32836106946e-05
-2.36810006496e-12
4.32836107798e-05
-2.46604597242e-12
4.32836109467e-05
-2.57451561524e-12
4.32836111052e-05
-2.739282208e-12
4.32836111858e-05
-2.91749555806e-12
4.32836112739e-05
-3.07801555783e-12
4.32836113659e-05
-3.23054250305e-12
4.32836114754e-05
-3.3413063068e-12
4.32836116906e-05
-3.43513106047e-12
4.32836119351e-05
-3.52981201303e-12
4.32836121688e-05
-3.5958635851e-12
4.32836124832e-05
-3.71483295662e-12
4.32836127969e-05
-3.91745304275e-12
4.32836130975e-05
-4.06514714487e-12
4.32836135734e-05
-4.17967353124e-12
4.32836141498e-05
-4.36662344071e-12
4.32836147196e-05
-4.57306904941e-12
4.32836154189e-05
-4.82727612723e-12
4.32836161748e-05
-5.16656694308e-12
4.32836169283e-05
-5.46683651585e-12
4.32836178823e-05
-5.78962676671e-12
4.32836189694e-05
-6.2622752037e-12
4.32836201265e-05
-6.76371843049e-12
4.32836216373e-05
-7.33567670255e-12
4.32836234695e-05
-8.14695058938e-12
4.32836254833e-05
-9.10127697168e-12
4.328362797e-05
-1.02487891142e-11
4.32836309639e-05
-1.17450029634e-11
4.32836343961e-05
-1.34444342227e-11
4.32836388399e-05
-1.53868687342e-11
4.32836442131e-05
-1.7902954903e-11
4.32836505094e-05
-2.09527097741e-11
4.3283658201e-05
-2.46033523404e-11
4.32836677193e-05
-2.91468683359e-11
4.32836792059e-05
-3.47102858054e-11
4.32836933534e-05
-4.1494903919e-11
4.32837108501e-05
-5.00404748013e-11
4.32837321009e-05
-6.06198609564e-11
4.32837583188e-05
-7.35661848658e-11
4.32837908953e-05
-8.97219461272e-11
4.32838308171e-05
-1.09850740201e-10
4.32838800611e-05
-1.34854496437e-10
4.32839411707e-05
-1.65963019551e-10
4.32840165077e-05
-2.04480052326e-10
4.32841095178e-05
-2.51878532803e-10
4.32842246982e-05
-3.10559888469e-10
4.32843668777e-05
-3.83348437448e-10
4.3284542548e-05
-4.73385500936e-10
4.32847600382e-05
-5.84909038266e-10
4.32850288908e-05
-7.23066573476e-10
4.32853613933e-05
-8.9398053517e-10
4.32857730829e-05
-1.1056164945e-09
4.32862824752e-05
-1.36768604194e-09
4.32869129142e-05
-1.69205859063e-09
4.32876936516e-05
-2.09407629352e-09
4.32886600239e-05
-2.59258464252e-09
4.32898559478e-05
-3.2102330049e-09
4.32913366468e-05
-3.97548451454e-09
4.32931699476e-05
-4.92368966432e-09
4.32954395752e-05
-6.09814567252e-09
4.32982500685e-05
-7.5527608888e-09
4.3301730484e-05
-9.35471145158e-09
4.33060404342e-05
-1.15869698865e-08
4.33113784898e-05
-1.43527718948e-08
4.33179902913e-05
-1.7780430201e-08
4.33261804189e-05
-2.20288562987e-08
4.33363275299e-05
-2.72961482513e-08
4.33489008723e-05
-3.38292962501e-08
4.33644833258e-05
-4.19356899951e-08
4.33838001105e-05
-5.19991952099e-08
4.34077533506e-05
-6.45005047952e-08
4.34374665144e-05
-8.0042827327e-08
4.34743417012e-05
-9.93854472456e-08
4.35201318238e-05
-1.23488297106e-07
4.3577032053e-05
-1.53570563426e-07
4.3647801654e-05
-1.91190305213e-07
4.37359205489e-05
-2.38355010655e-07
4.3845796081e-05
-2.97674993059e-07
4.39830441358e-05
-3.72585149044e-07
4.41548702426e-05
-4.67675832409e-07
4.43705981011e-05
-5.89200429224e-07
4.46424159048e-05
-7.45887375922e-07
4.49864294443e-05
-9.5029774101e-07
4.5424117819e-05
-1.2211882259e-06
4.59841729619e-05
-1.58775511585e-06
4.67041522742e-05
-2.09738380392e-06
4.76295389798e-05
-2.82962009392e-06
4.88028448987e-05
-3.91932122548e-06
5.02236308174e-05
-5.58705663436e-06
5.17362034336e-05
-8.15712215936e-06
-1.19644920257e-05
5.28181895214e-05
5.27606084643e-05
6.19125869455e-06
5.57402408978e-05
1.2870502444e-05
5.73124122436e-05
1.46832149823e-05
5.76111984284e-05
1.37486538113e-05
5.71338692615e-05
1.16335592897e-05
5.63199849044e-05
9.26535527626e-06
5.54496461086e-05
7.09475087055e-06
5.46637041646e-05
5.28436651841e-06
5.40144144124e-05
3.85358824739e-06
5.35068439689e-05
2.76147690648e-06
5.31248795274e-05
1.94820756885e-06
5.28455254841e-05
1.3540800964e-06
5.26458892791e-05
9.27012724632e-07
5.25060766614e-05
6.2451770341e-07
5.24099990109e-05
4.13289374665e-07
5.23452175352e-05
2.679142616e-07
5.23024127167e-05
1.69389409974e-07
5.22747679475e-05
1.03739561611e-07
5.2257395885e-05
6.08366793987e-08
5.22468540156e-05
3.34409784956e-08
5.22407579084e-05
1.64466950195e-08
5.22374850449e-05
6.30225146234e-09
5.22359440714e-05
5.76456660215e-10
5.22354290888e-05
-2.38963777055e-09
5.22354813902e-05
-3.67191306887e-09
5.22358168217e-05
-3.98258730581e-09
5.22362647556e-05
-3.77155525723e-09
5.22367282485e-05
-3.31547592115e-09
5.22371568903e-05
-2.77739403357e-09
5.22375281772e-05
-2.24763478896e-09
5.22378359815e-05
-1.77111391064e-09
5.22380832806e-05
-1.36573547834e-09
5.22382770153e-05
-1.03405365885e-09
5.22384255943e-05
-7.70407370296e-10
5.22385376953e-05
-5.6565571975e-10
5.22386209708e-05
-4.09794915426e-10
5.22386818436e-05
-2.93100555591e-10
5.22387258831e-05
-2.07021997021e-10
5.22387574044e-05
-1.4448731918e-10
5.22387795648e-05
-9.96094474607e-11
5.22387950281e-05
-6.77407570168e-11
5.22388057435e-05
-4.54630782444e-11
5.22388129219e-05
-3.00937815277e-11
5.2238817675e-05
-1.95689954975e-11
5.22388208446e-05
-1.25080732174e-11
5.2238822802e-05
-7.85141442127e-12
5.22388239856e-05
-4.76626598911e-12
5.22388247623e-05
-2.80001604137e-12
5.22388251262e-05
-1.59845031047e-12
5.22388252045e-05
-8.38818500729e-13
5.22388252192e-05
-4.37480787587e-13
5.22388251048e-05
-2.81152341137e-13
5.22388249406e-05
-2.30334232228e-13
5.22388248907e-05
-2.29383155128e-13
5.22388248281e-05
-3.40281219112e-13
5.22388247161e-05
-4.96666393888e-13
5.22388247165e-05
-6.73030708758e-13
5.2238824736e-05
-8.98816034878e-13
5.22388247083e-05
-1.07509100529e-12
5.22388247559e-05
-1.19515421241e-12
5.22388248169e-05
-1.30562503221e-12
5.22388248129e-05
-1.37988366811e-12
5.22388248317e-05
-1.46347816919e-12
5.22388248264e-05
-1.63042549297e-12
5.22388247671e-05
-1.81078222009e-12
5.22388247778e-05
-1.95935946328e-12
5.22388247904e-05
-2.10339589031e-12
5.22388246844e-05
-2.20094907726e-12
5.2238824568e-05
-2.26065284635e-12
5.22388244795e-05
-2.36348289992e-12
5.22388243647e-05
-2.49038934821e-12
5.22388242842e-05
-2.6180327521e-12
5.22388242178e-05
-2.78146803957e-12
5.2238824085e-05
-2.94861324082e-12
5.22388239579e-05
-3.08603146088e-12
5.22388238539e-05
-3.21439568507e-12
5.22388237451e-05
-3.31480257032e-12
5.22388237072e-05
-3.40328691685e-12
5.22388236893e-05
-3.52124476018e-12
5.22388236121e-05
-3.62390418161e-12
5.22388235934e-05
-3.72900862695e-12
5.22388236203e-05
-3.90824653945e-12
5.22388236117e-05
-4.08845253933e-12
5.22388237258e-05
-4.23865086047e-12
5.22388239545e-05
-4.45715319829e-12
5.22388241459e-05
-4.72729123428e-12
5.22388244328e-05
-5.0254514716e-12
5.22388248193e-05
-5.40863334965e-12
5.22388251678e-05
-5.8191946715e-12
5.22388256493e-05
-6.26501907047e-12
5.22388262978e-05
-6.86873582998e-12
5.2238826979e-05
-7.56294466164e-12
5.223882792e-05
-8.33274438082e-12
5.22388292137e-05
-9.36493759588e-12
5.22388306671e-05
-1.0663645487e-11
5.22388325081e-05
-1.22077037034e-11
5.2238834916e-05
-1.41563245118e-11
5.22388377273e-05
-1.64880535311e-11
5.2238841258e-05
-1.91733272556e-11
5.22388458874e-05
-2.25259232181e-11
5.22388515929e-05
-2.66926903628e-11
5.22388587124e-05
-3.17468854448e-11
5.22388677985e-05
-3.80223181172e-11
5.22388789752e-05
-4.58138160205e-11
5.22388927825e-05
-5.53517890036e-11
5.2238910153e-05
-6.72513449733e-11
5.22389315797e-05
-8.20800646312e-11
5.22389580861e-05
-1.0024538039e-10
5.22389912696e-05
-1.22741187242e-10
5.22390322624e-05
-1.50821899078e-10
5.223908276e-05
-1.85603117838e-10
5.22391455328e-05
-2.28643869587e-10
5.22392232445e-05
-2.81955319865e-10
5.22393191728e-05
-3.47807058068e-10
5.22394380266e-05
-4.29306736535e-10
5.22395850436e-05
-5.30351532905e-10
5.22397667713e-05
-6.55381197784e-10
5.22399918953e-05
-8.10127005983e-10
5.22402705066e-05
-1.00175526145e-09
5.22406151653e-05
-1.23890046538e-09
5.22410420801e-05
-1.53249050537e-09
5.22415706378e-05
-1.89620054097e-09
5.22422247325e-05
-2.34651589239e-09
5.22430347199e-05
-2.9042016867e-09
5.22440376802e-05
-3.59532826639e-09
5.22452789882e-05
-4.45166851538e-09
5.22468157e-05
-5.51242709121e-09
5.22487184455e-05
-6.82641572268e-09
5.22510740022e-05
-8.45386630898e-09
5.22539905835e-05
-1.0469423057e-08
5.22576021901e-05
-1.29660325274e-08
5.22620741143e-05
-1.60587552121e-08
5.22676119642e-05
-1.98903582126e-08
5.22744704017e-05
-2.46383495413e-08
5.22829643999e-05
-3.05227448308e-08
5.22934853038e-05
-3.78170667339e-08
5.2306518227e-05
-4.68621286288e-08
5.23226647241e-05
-5.80822098119e-08
5.23426720061e-05
-7.20064508071e-08
5.23674681177e-05
-8.9296444511e-08
5.23982062998e-05
-1.10780923299e-07
5.24363215453e-05
-1.37500765439e-07
5.24836018841e-05
-1.70768325573e-07
5.25422765695e-05
-2.12244969041e-07
5.2615131128e-05
-2.64044850733e-07
5.27056535381e-05
-3.28877074863e-07
5.28182198711e-05
-4.10240963327e-07
5.29583364308e-05
-5.12701548777e-07
5.31329514152e-05
-6.42290685867e-07
5.33508537015e-05
-8.07102811928e-07
5.36231735758e-05
-1.01820731381e-06
5.39639667426e-05
-1.29109119226e-06
5.43907708603e-05
-1.64799258719e-06