/*--------------------------------*- C++ -*----------------------------------*\
| =========                 |                                                 |
| \\      /  F ield         | OpenFOAM: The Open Source CFD Toolbox           |
|  \\    /   O peration     | Version:  v1706                                 |
|   \\  /    A nd           | Web:      www.OpenFOAM.com                      |
|    \\/     M anipulation  |                                                 |
\*---------------------------------------------------------------------------*/
FoamFile
{
    version     2.0;
    format      ascii;
    class       volVectorField;
    location    "400";
    object      B;
}
// * * * * * * * * * * * * * * * * * * * * * * * * * * * * * * * * * * * * * //

dimensions      [1 0 -2 0 0 -1 0];


internalField   nonuniform List<vector> 
800
(
(0.77373 1 0)
(0.771767 1 0)
(0.767704 1 0)
(0.762768 1 0)
(0.758223 1 0)
(0.754704 1 0)
(0.752675 1 0)
(0.752958 1 0)
(0.755427 1 0)
(0.759215 1 0)
(0.763621 1 0)
(0.767651 1 0)
(0.770936 1 0)
(0.772856 1 0)
(0.772888 1 0)
(0.771479 1 0)
(0.768522 1 0)
(0.764486 1 0)
(0.760029 1 0)
(0.755502 1 0)
(0.751004 1 0)
(0.746344 1 0)
(0.741913 1 0)
(0.738044 1 0)
(0.734549 1 0)
(0.731311 1 0)
(0.729103 1 0)
(0.728652 1 0)
(0.730353 1 0)
(0.734223 1 0)
(0.739505 1 0)
(0.745813 1 0)
(0.752091 1 0)
(0.757267 1 0)
(0.761057 1 0)
(0.762876 1 0)
(0.762749 1 0)
(0.76172 1 0)
(0.760612 1 0)
(0.759436 1 0)
(0.758369 1 0)
(0.757636 1 0)
(0.756727 1 0)
(0.754817 1 0)
(0.751146 1 0)
(0.74604 1 0)
(0.738917 1 0)
(0.729868 1 0)
(0.72107 1 0)
(0.713829 1 0)
(0.708791 1 0)
(0.707299 1 0)
(0.710131 1 0)
(0.716004 1 0)
(0.723756 1 0)
(0.73221 1 0)
(0.739721 1 0)
(0.744608 1 0)
(0.747293 1 0)
(0.747801 1 0)
(0.746557 1 0)
(0.745097 1 0)
(0.743319 1 0)
(0.742072 1 0)
(0.741814 1 0)
(0.741887 1 0)
(0.742364 1 0)
(0.743078 1 0)
(0.743239 1 0)
(0.743073 1 0)
(0.743224 1 0)
(0.743122 1 0)
(0.743465 1 0)
(0.745139 1 0)
(0.748407 1 0)
(0.753737 1 0)
(0.760562 1 0)
(0.768003 1 0)
(0.775047 1 0)
(0.780096 1 0)
(0.782899 1 0)
(0.781979 1 0)
(0.777821 1 0)
(0.772057 1 0)
(0.76504 1 0)
(0.758401 1 0)
(0.752924 1 0)
(0.749551 1 0)
(0.748152 1 0)
(0.749107 1 0)
(0.751735 1 0)
(0.755248 1 0)
(0.760206 1 0)
(0.765154 1 0)
(0.76935 1 0)
(0.772865 1 0)
(0.774675 1 0)
(0.773722 1 0)
(0.769741 1 0)
(0.764678 1 0)
(0.757922 1 0)
(0.749636 1 0)
(0.74193 1 0)
(0.734478 1 0)
(0.728214 1 0)
(0.723488 1 0)
(0.720385 1 0)
(0.718946 1 0)
(0.719519 1 0)
(0.722478 1 0)
(0.727381 1 0)
(0.733942 1 0)
(0.74137 1 0)
(0.748713 1 0)
(0.755391 1 0)
(0.760525 1 0)
(0.764385 1 0)
(0.767135 1 0)
(0.768006 1 0)
(0.768275 1 0)
(0.767415 1 0)
(0.764353 1 0)
(0.759074 1 0)
(0.751047 1 0)
(0.740851 1 0)
(0.728628 1 0)
(0.715504 1 0)
(0.703819 1 0)
(0.694721 1 0)
(0.688968 1 0)
(0.687839 1 0)
(0.69144 1 0)
(0.699323 1 0)
(0.710558 1 0)
(0.72414 1 0)
(0.739111 1 0)
(0.75384 1 0)
(0.767691 1 0)
(0.779506 1 0)
(0.788643 1 0)
(0.794927 1 0)
(0.798149 1 0)
(0.797969 1 0)
(0.794424 1 0)
(0.788671 1 0)
(0.780593 1 0)
(0.77126 1 0)
(0.761858 1 0)
(0.75281 1 0)
(0.745258 1 0)
(0.739134 1 0)
(0.734943 1 0)
(0.733021 1 0)
(0.733243 1 0)
(0.734931 1 0)
(0.737759 1 0)
(0.741822 1 0)
(0.745374 1 0)
(0.748211 1 0)
(0.750514 1 0)
(0.75208 1 0)
(0.752911 1 0)
(0.753593 1 0)
(0.754676 1 0)
(0.755425 1 0)
(0.75525 1 0)
(0.753859 1 0)
(0.750382 1 0)
(0.744824 1 0)
(0.737329 1 0)
(0.729045 1 0)
(0.721377 1 0)
(0.714952 1 0)
(0.712046 1 0)
(0.712509 1 0)
(0.715739 1 0)
(0.722608 1 0)
(0.731954 1 0)
(0.742691 1 0)
(0.75415 1 0)
(0.765128 1 0)
(0.774936 1 0)
(0.782426 1 0)
(0.787152 1 0)
(0.788475 1 0)
(0.78713 1 0)
(0.784029 1 0)
(0.779376 1 0)
(0.774387 1 0)
(0.770659 1 0)
(0.76846 1 0)
(0.767887 1 0)
(0.769573 1 0)
(0.772259 1 0)
(0.776097 1 0)
(0.779554 1 0)
(0.781379 1 0)
(0.781499 1 0)
(0.779085 1 0)
(0.774168 1 0)
(0.767503 1 0)
(0.760138 1 0)
(0.752448 1 0)
(0.745578 1 0)
(0.740218 1 0)
(0.736255 1 0)
(0.734178 1 0)
(0.733371 1 0)
(0.733003 1 0)
(0.733426 1 0)
(0.733416 1 0)
(0.732618 1 0)
(0.732407 1 0)
(0.731992 1 0)
(0.731717 1 0)
(0.732925 1 0)
(0.735013 1 0)
(0.738111 1 0)
(0.741995 1 0)
(0.745629 1 0)
(0.748433 1 0)
(0.750247 1 0)
(0.750399 1 0)
(0.749532 1 0)
(0.747987 1 0)
(0.746015 1 0)
(0.743864 1 0)
(0.742103 1 0)
(0.740953 1 0)
(0.740524 1 0)
(0.741125 1 0)
(0.742547 1 0)
(0.745918 1 0)
(0.750253 1 0)
(0.755085 1 0)
(0.759571 1 0)
(0.7623 1 0)
(0.76204 1 0)
(0.758488 1 0)
(0.752215 1 0)
(0.744112 1 0)
(0.735696 1 0)
(0.7287 1 0)
(0.724614 1 0)
(0.72338 1 0)
(0.724777 1 0)
(0.727951 1 0)
(0.731546 1 0)
(0.733849 1 0)
(0.734731 1 0)
(0.733764 1 0)
(0.730914 1 0)
(0.727893 1 0)
(0.724503 1 0)
(0.722975 1 0)
(0.724223 1 0)
(0.727259 1 0)
(0.733668 1 0)
(0.742271 1 0)
(0.751878 1 0)
(0.762355 1 0)
(0.772512 1 0)
(0.781492 1 0)
(0.788465 1 0)
(0.79307 1 0)
(0.794722 1 0)
(0.793233 1 0)
(0.789382 1 0)
(0.78286 1 0)
(0.775214 1 0)
(0.767163 1 0)
(0.759227 1 0)
(0.753008 1 0)
(0.748252 1 0)
(0.745409 1 0)
(0.745136 1 0)
(0.746732 1 0)
(0.749185 1 0)
(0.752781 1 0)
(0.755962 1 0)
(0.758146 1 0)
(0.759293 1 0)
(0.758567 1 0)
(0.756927 1 0)
(0.754843 1 0)
(0.751935 1 0)
(0.749469 1 0)
(0.747549 1 0)
(0.745814 1 0)
(0.744483 1 0)
(0.742535 1 0)
(0.740464 1 0)
(0.738584 1 0)
(0.737076 1 0)
(0.736089 1 0)
(0.737649 1 0)
(0.741681 1 0)
(0.74712 1 0)
(0.75556 1 0)
(0.764878 1 0)
(0.773559 1 0)
(0.781628 1 0)
(0.787018 1 0)
(0.789408 1 0)
(0.788839 1 0)
(0.785227 1 0)
(0.779413 1 0)
(0.772275 1 0)
(0.764572 1 0)
(0.75627 1 0)
(0.748308 1 0)
(0.741093 1 0)
(0.734671 1 0)
(0.729631 1 0)
(0.726176 1 0)
(0.724559 1 0)
(0.724473 1 0)
(0.726101 1 0)
(0.728729 1 0)
(0.732156 1 0)
(0.735788 1 0)
(0.739133 1 0)
(0.742301 1 0)
(0.744412 1 0)
(0.74497 1 0)
(0.744295 1 0)
(0.742355 1 0)
(0.739653 1 0)
(0.736438 1 0)
(0.733369 1 0)
(0.731474 1 0)
(0.73037 1 0)
(0.73016 1 0)
(0.730085 1 0)
(0.729484 1 0)
(0.727946 1 0)
(0.72538 1 0)
(0.722406 1 0)
(0.720064 1 0)
(0.719029 1 0)
(0.719828 1 0)
(0.723456 1 0)
(0.728843 1 0)
(0.735451 1 0)
(0.743351 1 0)
(0.751177 1 0)
(0.759096 1 0)
(0.767184 1 0)
(0.773745 1 0)
(0.779364 1 0)
(0.783384 1 0)
(0.784693 1 0)
(0.783345 1 0)
(0.779253 1 0)
(0.773035 1 0)
(0.765121 1 0)
(0.757144 1 0)
(0.749711 1 0)
(0.744154 1 0)
(0.740976 1 0)
(0.740292 1 0)
(0.743065 1 0)
(0.748151 1 0)
(0.755632 1 0)
(0.765082 1 0)
(0.775067 1 0)
(0.785502 1 0)
(0.795177 1 0)
(0.80374 1 0)
(0.810122 1 0)
(0.813233 1 0)
(0.812236 1 0)
(0.807927 1 0)
(0.799172 1 0)
(0.786189 1 0)
(0.771316 1 0)
(0.755194 1 0)
(0.739904 1 0)
(0.726848 1 0)
(0.717146 1 0)
(0.711015 1 0)
(0.709213 1 0)
(0.711267 1 0)
(0.715598 1 0)
(0.72143 1 0)
(0.728813 1 0)
(0.736092 1 0)
(0.742218 1 0)
(0.747926 1 0)
(0.752041 1 0)
(0.753876 1 0)
(0.7539 1 0)
(0.751535 1 0)
(0.746658 1 0)
(0.739957 1 0)
(0.731678 1 0)
(0.722786 1 0)
(0.714297 1 0)
(0.707459 1 0)
(0.703301 1 0)
(0.702078 -1 0)
(0.703929 -1 0)
(0.708829 -1 0)
(0.716572 -1 0)
(0.726607 -1 0)
(0.737556 -1 0)
(0.74897 -1 0)
(0.760665 -1 0)
(0.77143 -1 0)
(0.780838 -1 0)
(0.788381 -1 0)
(0.794035 -1 0)
(0.797238 -1 0)
(0.798593 -1 0)
(0.798091 -1 0)
(0.795848 -1 0)
(0.793276 -1 0)
(0.790341 -1 0)
(0.787438 -1 0)
(0.785043 -1 0)
(0.783034 -1 0)
(0.781395 -1 0)
(0.779963 -1 0)
(0.777206 -1 0)
(0.773343 -1 0)
(0.768359 -1 0)
(0.76029 -1 0)
(0.751201 -1 0)
(0.741093 -1 0)
(0.729514 -1 0)
(0.718985 -1 0)
(0.710475 -1 0)
(0.704661 -1 0)
(0.702138 -1 0)
(0.704125 -1 0)
(0.710151 -1 0)
(0.71871 -1 0)
(0.729316 -1 0)
(0.741583 -1 0)
(0.753443 -1 0)
(0.763311 -1 0)
(0.772067 -1 0)
(0.778134 -1 0)
(0.781182 -1 0)
(0.781578 -1 0)
(0.778992 -1 0)
(0.7744 -1 0)
(0.767454 -1 0)
(0.759488 -1 0)
(0.750948 -1 0)
(0.743183 -1 0)
(0.736751 -1 0)
(0.731391 -1 0)
(0.729161 -1 0)
(0.729311 -1 0)
(0.731413 -1 0)
(0.735366 -1 0)
(0.741084 -1 0)
(0.748167 -1 0)
(0.754438 -1 0)
(0.760911 -1 0)
(0.766524 -1 0)
(0.770527 -1 0)
(0.774134 -1 0)
(0.775919 -1 0)
(0.776632 -1 0)
(0.776509 -1 0)
(0.77507 -1 0)
(0.772599 -1 0)
(0.768902 -1 0)
(0.764585 -1 0)
(0.759427 -1 0)
(0.754098 -1 0)
(0.749041 -1 0)
(0.744414 -1 0)
(0.740618 -1 0)
(0.736768 -1 0)
(0.734048 -1 0)
(0.732171 -1 0)
(0.730382 -1 0)
(0.729889 -1 0)
(0.729819 -1 0)
(0.730824 -1 0)
(0.732854 -1 0)
(0.734603 -1 0)
(0.737195 -1 0)
(0.739899 -1 0)
(0.741536 -1 0)
(0.742628 -1 0)
(0.743286 -1 0)
(0.742855 -1 0)
(0.741308 -1 0)
(0.739694 -1 0)
(0.737729 -1 0)
(0.735658 -1 0)
(0.733483 -1 0)
(0.732072 -1 0)
(0.731373 -1 0)
(0.73064 -1 0)
(0.730724 -1 0)
(0.731019 -1 0)
(0.731564 -1 0)
(0.731545 -1 0)
(0.731111 -1 0)
(0.73052 -1 0)
(0.729314 -1 0)
(0.728276 -1 0)
(0.727236 -1 0)
(0.726537 -1 0)
(0.726943 -1 0)
(0.728223 -1 0)
(0.730789 -1 0)
(0.734345 -1 0)
(0.73887 -1 0)
(0.744912 -1 0)
(0.751338 -1 0)
(0.757655 -1 0)
(0.763858 -1 0)
(0.768873 -1 0)
(0.773059 -1 0)
(0.775827 -1 0)
(0.776915 -1 0)
(0.776902 -1 0)
(0.775835 -1 0)
(0.774199 -1 0)
(0.771912 -1 0)
(0.769342 -1 0)
(0.76706 -1 0)
(0.764252 -1 0)
(0.761231 -1 0)
(0.758915 -1 0)
(0.756224 -1 0)
(0.753605 -1 0)
(0.751594 -1 0)
(0.750235 -1 0)
(0.74925 -1 0)
(0.749388 -1 0)
(0.750666 -1 0)
(0.752096 -1 0)
(0.754188 -1 0)
(0.756355 -1 0)
(0.75837 -1 0)
(0.760291 -1 0)
(0.761184 -1 0)
(0.761704 -1 0)
(0.761959 -1 0)
(0.761228 -1 0)
(0.760208 -1 0)
(0.758583 -1 0)
(0.756854 -1 0)
(0.755133 -1 0)
(0.753106 -1 0)
(0.751185 -1 0)
(0.74943 -1 0)
(0.74775 -1 0)
(0.745913 -1 0)
(0.744236 -1 0)
(0.742588 -1 0)
(0.7405 -1 0)
(0.738895 -1 0)
(0.7375 -1 0)
(0.735747 -1 0)
(0.734175 -1 0)
(0.733235 -1 0)
(0.732762 -1 0)
(0.73218 -1 0)
(0.732326 -1 0)
(0.733394 -1 0)
(0.734966 -1 0)
(0.737232 -1 0)
(0.740161 -1 0)
(0.743438 -1 0)
(0.747356 -1 0)
(0.751211 -1 0)
(0.754383 -1 0)
(0.756688 -1 0)
(0.758496 -1 0)
(0.759189 -1 0)
(0.758597 -1 0)
(0.757462 -1 0)
(0.756575 -1 0)
(0.756306 -1 0)
(0.756057 -1 0)
(0.757142 -1 0)
(0.759306 -1 0)
(0.761824 -1 0)
(0.764496 -1 0)
(0.76684 -1 0)
(0.768275 -1 0)
(0.767869 -1 0)
(0.766364 -1 0)
(0.76297 -1 0)
(0.75783 -1 0)
(0.752332 -1 0)
(0.746478 -1 0)
(0.74105 -1 0)
(0.737148 -1 0)
(0.735362 -1 0)
(0.735308 -1 0)
(0.736974 -1 0)
(0.74083 -1 0)
(0.745391 -1 0)
(0.74985 -1 0)
(0.753941 -1 0)
(0.756985 -1 0)
(0.758943 -1 0)
(0.758932 -1 0)
(0.757072 -1 0)
(0.75414 -1 0)
(0.750351 -1 0)
(0.745669 -1 0)
(0.741188 -1 0)
(0.737665 -1 0)
(0.734747 -1 0)
(0.733393 -1 0)
(0.733781 -1 0)
(0.735306 -1 0)
(0.737836 -1 0)
(0.741164 -1 0)
(0.74462 -1 0)
(0.747462 -1 0)
(0.749865 -1 0)
(0.751874 -1 0)
(0.752038 -1 0)
(0.751175 -1 0)
(0.749918 -1 0)
(0.747487 -1 0)
(0.744495 -1 0)
(0.741264 -1 0)
(0.738 -1 0)
(0.735417 -1 0)
(0.733645 -1 0)
(0.733189 -1 0)
(0.734211 -1 0)
(0.736401 -1 0)
(0.740496 -1 0)
(0.744995 -1 0)
(0.749779 -1 0)
(0.754344 -1 0)
(0.757265 -1 0)
(0.759183 -1 0)
(0.76007 -1 0)
(0.759214 -1 0)
(0.75775 -1 0)
(0.756277 -1 0)
(0.754897 -1 0)
(0.754258 -1 0)
(0.754606 -1 0)
(0.755987 -1 0)
(0.758292 -1 0)
(0.76172 -1 0)
(0.765443 -1 0)
(0.769499 -1 0)
(0.772987 -1 0)
(0.775067 -1 0)
(0.775689 -1 0)
(0.774148 -1 0)
(0.770442 -1 0)
(0.764397 -1 0)
(0.757174 -1 0)
(0.749075 -1 0)
(0.740312 -1 0)
(0.732021 -1 0)
(0.724071 -1 0)
(0.717116 -1 0)
(0.7115 -1 0)
(0.708066 -1 0)
(0.706411 -1 0)
(0.706517 -1 0)
(0.710169 -1 0)
(0.715968 -1 0)
(0.723879 -1 0)
(0.73385 -1 0)
(0.744755 -1 0)
(0.756157 -1 0)
(0.766747 -1 0)
(0.775932 -1 0)
(0.783 -1 0)
(0.787978 -1 0)
(0.79043 -1 0)
(0.790118 -1 0)
(0.788447 -1 0)
(0.784826 -1 0)
(0.779776 -1 0)
(0.773679 -1 0)
(0.766622 -1 0)
(0.759528 -1 0)
(0.752407 -1 0)
(0.745703 -1 0)
(0.739894 -1 0)
(0.735793 -1 0)
(0.732857 -1 0)
(0.731847 -1 0)
(0.731599 -1 0)
(0.732481 -1 0)
(0.734686 -1 0)
(0.736552 -1 0)
(0.738954 -1 0)
(0.741794 -1 0)
(0.744123 -1 0)
(0.746243 -1 0)
(0.749049 -1 0)
(0.751753 -1 0)
(0.754478 -1 0)
(0.757519 -1 0)
(0.760478 -1 0)
(0.763444 -1 0)
(0.766679 -1 0)
(0.769436 -1 0)
(0.77177 -1 0)
(0.774109 -1 0)
(0.775591 -1 0)
(0.776114 -1 0)
(0.776016 -1 0)
(0.774338 -1 0)
(0.770912 -1 0)
(0.766765 -1 0)
(0.761259 -1 0)
(0.754686 -1 0)
(0.748431 -1 0)
(0.74272 -1 0)
(0.737499 -1 0)
(0.73414 -1 0)
(0.732422 -1 0)
(0.732081 -1 0)
(0.73297 -1 0)
(0.734534 -1 0)
(0.73656 -1 0)
(0.73846 -1 0)
(0.739744 -1 0)
(0.740463 -1 0)
(0.740669 -1 0)
(0.739952 -1 0)
(0.739673 -1 0)
(0.738987 -1 0)
(0.738326 -1 0)
(0.738706 -1 0)
(0.738946 -1 0)
(0.739803 -1 0)
(0.741576 -1 0)
(0.743322 -1 0)
(0.745244 -1 0)
(0.748161 -1 0)
(0.751328 -1 0)
(0.754407 -1 0)
(0.758339 -1 0)
(0.762135 -1 0)
(0.766102 -1 0)
(0.769722 -1 0)
(0.77275 -1 0)
(0.775286 -1 0)
(0.775823 -1 0)
(0.775287 -1 0)
(0.773282 -1 0)
(0.768708 -1 0)
(0.762737 -1 0)
(0.755523 -1 0)
(0.747243 -1 0)
(0.738715 -1 0)
(0.731482 -1 0)
(0.725958 -1 0)
(0.723194 -1 0)
(0.722995 -1 0)
(0.725384 -1 0)
(0.730534 -1 0)
(0.736496 -1 0)
(0.743524 -1 0)
(0.749822 -1 0)
(0.754715 -1 0)
(0.758234 -1 0)
(0.759612 -1 0)
(0.758833 -1 0)
(0.756576 -1 0)
(0.753018 -1 0)
(0.747792 -1 0)
(0.742484 -1 0)
(0.737156 -1 0)
(0.731769 -1 0)
(0.727525 -1 0)
(0.72458 -1 0)
(0.723095 -1 0)
(0.723977 -1 0)
(0.726624 -1 0)
(0.73115 -1 0)
(0.737102 -1 0)
(0.743812 -1 0)
(0.750863 -1 0)
(0.756706 -1 0)
(0.761716 -1 0)
(0.765468 -1 0)
(0.767182 -1 0)
(0.767443 -1 0)
(0.766904 -1 0)
(0.765687 -1 0)
(0.764032 -1 0)
(0.76283 -1 0)
(0.761758 -1 0)
(0.760603 -1 0)
(0.760552 -1 0)
(0.760565 -1 0)
)
;

boundaryField
{
    left
    {
        type            zeroGradient;
    }
    right
    {
        type            zeroGradient;
    }
    empty
    {
        type            empty;
    }
}


// ************************************************************************* //
