/*--------------------------------*- C++ -*----------------------------------*\
| =========                 |                                                 |
| \\      /  F ield         | OpenFOAM: The Open Source CFD Toolbox           |
|  \\    /   O peration     | Version:  v1706                                 |
|   \\  /    A nd           | Web:      www.OpenFOAM.com                      |
|    \\/     M anipulation  |                                                 |
\*---------------------------------------------------------------------------*/
FoamFile
{
    version     2.0;
    format      ascii;
    class       volScalarField;
    location    "400";
    object      p;
}
// * * * * * * * * * * * * * * * * * * * * * * * * * * * * * * * * * * * * * //

dimensions      [0 2 -2 0 0 0 0];


internalField   nonuniform List<scalar> 
800
(
0.00105691
-7.75546e-18
-0.00029213
-0.00226235
-0.00489186
-0.00615361
-0.00367809
-0.00211089
-0.00223708
-0.00241228
-0.00348838
-0.00307616
-0.0032755
-0.00381536
-0.00310213
-0.00322252
-0.00313342
-0.00276058
-0.00318272
-0.0039472
-0.00409489
-0.0022802
-0.00142264
-0.00344591
-0.00581468
-0.00599812
-0.00469104
-0.00349228
-0.00331082
-0.00484597
-0.0048623
-0.0035356
-0.00165371
-0.00172458
-0.00458301
-0.00516999
-0.00282386
-0.000716318
-0.00204785
-0.00417255
-0.00388326
-0.00347126
-0.00324046
-0.00240022
-0.00049979
-0.00329762
-0.00590689
-0.00314968
-0.00379739
-0.00658847
-0.00608584
-0.00317658
-0.00359093
-0.00515499
-0.00392503
-0.00330261
-0.00349838
-0.00200461
-0.00357607
-0.00602635
-0.00551495
-0.00504543
-0.00297171
-0.00195364
-0.00315644
-0.00283892
-0.00302119
-0.0042258
-0.00365952
-0.00248963
-0.00362469
-0.00386878
-0.00293878
-0.00250786
-0.00238958
-0.00350041
-0.00427705
-0.00350057
-0.0035681
-0.00392115
-0.00483908
-0.00369037
-0.00219478
-0.0029139
-0.00295118
-0.0037003
-0.00395713
-0.00344841
-0.00182152
-0.00419735
-0.00559574
-0.00259408
-0.00293829
-0.00343164
-0.00222662
-0.00356843
-0.00648372
-0.00403202
0.00173791
-0.00206236
-0.00667613
-0.00433644
-0.0033544
-0.0027511
-0.00282248
-0.003821
-0.00507386
-0.00467123
-0.00383666
-0.00520146
-0.00528188
-0.00350889
-0.00233667
-0.00284225
-0.00401645
-0.00313098
-0.00304811
-0.00449701
-0.00326881
-0.00275757
-0.0039712
-0.0034305
-0.00162912
-0.00112713
-0.00424662
-0.00560033
-0.00346493
-0.00412849
-0.00651153
-0.00684874
-0.00691181
-0.00661309
-0.00638801
-0.0052169
-0.00360935
-0.00375442
-0.00313278
-0.00333225
-0.00340351
-0.0025319
-0.00208783
-0.00348734
-0.00437081
-0.00403567
-0.00486968
-0.00284254
-0.00128594
-0.00233245
-0.00308132
-0.00463174
-0.0046807
-0.00356751
-0.00341931
-0.00447544
-0.00345312
-0.00286387
-0.00630296
-0.0054262
-0.00309586
-0.00303563
-0.00294085
-0.00293819
-0.00243417
-0.00261593
-0.00344775
-0.00354943
-0.00336837
-0.00287779
-0.0045135
-0.00472093
-0.00349189
-0.00339899
-0.00235535
-0.00523176
-0.00687753
-0.00399811
-0.00440226
-0.00527491
-0.0039856
-0.00387514
-0.00383273
-0.00369928
-0.00333783
-0.00342017
-0.00171043
-0.00226369
-0.00464223
-0.00274515
-0.000948017
-0.00283088
-0.00374042
-0.00321466
-0.0038495
-0.00247535
-0.00337322
-0.00411945
-0.0035243
-0.00488793
-0.00490394
-0.00354667
-0.00312862
-0.00314604
-0.00243001
-0.00263964
-0.00347807
-0.00243853
-0.00345968
-0.00576916
-0.00354168
-0.00299257
-0.002903
-0.00236466
-0.0063544
-0.00621886
-0.00277766
-0.0030227
-0.00282246
-0.00346342
-0.00577731
-0.00500043
-0.00303819
-0.00300732
-0.00201472
-0.00171292
-0.00253349
-0.00443889
-0.00493937
-0.00439891
-0.00357583
-0.00316106
-0.00389901
-0.00219262
-0.00265955
-0.00323471
-0.00352145
-0.00432515
-0.00396731
-0.00189735
-0.00192194
-0.00447342
-0.00456969
-0.00352496
-0.0025692
-0.00356898
-0.00549272
-0.00563295
-0.00478139
-0.00415624
-0.00286507
-0.00274035
-0.0025578
-0.00267522
-0.00579587
-0.00409189
-0.00303377
-0.00413814
-0.00255989
-0.0039243
-0.00390905
-0.00286672
-0.00317867
-0.00365012
-0.00461371
-0.00422801
-0.00360766
-0.00290279
-0.00340353
-0.00485712
-0.00201068
-0.0014404
-0.00287738
-0.00333711
-0.0058418
-0.00562854
-0.00340304
-0.00335509
-0.00389696
-0.00249509
-0.00222571
-0.00271128
-0.00326143
-0.00290461
-0.00166979
-0.00344293
-0.00678065
-0.00580747
-0.00368278
-0.00240392
-0.00241819
-0.00397305
-0.00256702
-0.00234242
-0.00388492
-0.00488561
-0.00294569
-0.00372827
-0.00377602
-0.000684419
-0.00348811
-0.00452987
-0.00283799
-0.00435431
-0.00410202
-0.00342499
-0.00456577
-0.00392878
-0.00254666
-0.00351935
-0.0047157
-0.00345927
-0.00341189
-0.00367689
-0.00307302
-0.00301135
-0.00395068
-0.00547145
-0.00436415
-0.00299511
-0.00342846
-0.00527899
-0.00478929
-0.00322941
-0.00334536
-0.00308615
-0.00279586
-0.00324148
-0.00299047
-0.00303979
-0.00368155
-0.00377781
-0.00420304
-0.0036404
-0.00430111
-0.0049082
-0.00421347
-0.00378169
-0.00345294
-0.00383777
-0.00419533
-0.00298708
-0.00289197
-0.00644586
-0.0063529
-0.0038162
-0.00342401
-0.000965857
-0.00154673
-0.0047972
-0.00359901
-0.00390064
-0.00378959
-0.00253289
-0.00310102
-0.00384268
-0.00457505
-0.00289527
-0.00281805
-0.00296398
-0.00348572
-0.00388026
-0.00323382
-0.00404022
-0.00360974
-0.0042636
-0.00384761
-0.0018315
-0.00204298
-0.00192496
-0.00412211
-0.00538373
-0.00454866
-0.00359651
-0.00567993
-0.00582269
-0.0026865
-0.00173534
-0.00175904
-0.00390824
-0.00493154
-0.00489664
-0.00401902
-0.00435559
-0.0064543
-0.00545781
-0.00267617
-0.00380457
-0.00385947
-0.00269427
-0.00531758
-0.00503563
-0.00189734
-0.00211622
-0.00243011
-0.00223864
-0.0038313
-0.00434917
-0.00519497
-0.00492857
-0.00415099
-0.00602377
-0.00589941
-0.0043835
-0.00535478
-0.00531496
-0.00454909
-0.00305925
-0.00194203
-0.00291084
-0.00356512
-0.00499386
-0.00518959
-0.00486827
-0.00438027
-0.00437987
-0.00244431
0.000150276
-0.0024861
-0.00482383
-0.0042511
-0.00378768
-0.00368167
-0.00361521
-0.00418868
-0.00183295
-0.00188226
-0.0062608
-0.00307954
-0.00304815
-0.00545425
-0.00242319
-0.00258154
-0.00576813
-0.00672477
-0.00422654
-0.00500221
-0.00662353
-0.00376833
-0.00212281
-0.00549294
-0.00614479
-0.0024243
-0.00290252
-0.00222363
-0.00117258
-0.00270352
-0.00323751
-0.00470505
-0.00375373
-0.00282114
-0.0020998
-0.00416233
-0.00568712
-0.00268717
-0.00318646
-0.0045241
-0.00489652
-0.00333008
-0.00302964
-0.00516097
-0.0021006
-0.00134989
-0.00254367
-0.00282664
-0.005647
-0.00523605
-0.00410724
-0.00416836
-0.00321414
-0.00276801
-0.00265959
-0.00364782
-0.00368829
-0.00212975
-0.00143509
-0.00320574
-0.00484279
-0.00329787
-0.00426919
-0.00496329
-0.00275513
-0.00323076
-0.00303007
-0.00467737
-0.00666892
-0.00306162
-0.00195663
-0.00389161
-0.00222445
-0.00222127
-0.00586469
-0.00530326
-0.00144305
-0.00138631
-0.00284012
-0.00399669
-0.00301544
-0.00398646
-0.00523103
-0.003101
-0.00296951
-0.00390484
-0.00586417
-0.00501521
-0.00335737
-0.0028525
-0.00327648
-0.00572189
-0.00513822
-0.00346698
-0.00427019
-0.00548966
-0.00546504
-0.00302911
-0.000639842
-0.00233504
-0.00422389
-0.00320446
-0.00314562
-0.00294754
-0.00361835
-0.00402954
-0.00309787
-0.00212711
-0.00199246
-0.00346778
-0.00382972
-0.00374834
-0.00457722
-0.00306515
-0.00158124
-0.00354432
-0.00407899
-0.00326339
-0.00351515
-0.00381203
-0.00167191
-0.00217487
-0.006313
-0.00562337
-0.00338784
-0.00304301
-0.00325791
-0.00335689
-0.00110601
-0.00106225
-0.00344282
-0.00370387
-0.00348631
-0.00286256
-0.00360706
-0.00371638
-0.00208225
-0.00233399
-0.00387993
-0.00597417
-0.00527852
-0.00304972
-0.00288727
-0.00221883
-0.00337358
-0.00444194
-0.00471002
-0.00384077
-0.00320906
-0.00417329
-0.00274269
-0.00253931
-0.00519438
-0.00505535
-0.00337417
-0.00359097
-0.00185351
-0.00188576
-0.00334805
-0.00314203
-0.00273985
-0.00562608
-0.00645278
-0.00321029
-0.0012365
-0.00215713
-0.00452951
-0.00333647
-0.00265534
-0.00348457
-0.00368743
-0.00366901
-0.00424866
-0.0037804
-0.00140948
-0.00342438
-0.0032397
-0.00112915
-0.00304956
-0.00367634
-0.00305336
-0.00471477
-0.00654873
-0.00439549
-0.00139246
-0.00223078
-0.00291057
-0.00248775
-0.00237589
-0.00293302
-0.00637603
-0.00639413
-0.00312967
-0.00221481
-0.00349962
-0.00307554
-0.0027652
-0.00441683
-0.00341466
-0.00425729
-0.00526701
-0.00246642
-0.00179675
-0.00322705
-0.00265981
-0.00119271
-0.0028824
-0.00660396
-0.00552548
-0.00263442
-0.00222866
-0.00276154
-0.00357134
-0.00318644
-0.00293329
-0.00518108
-0.00501192
-0.00304605
-0.00317216
-0.00187119
-0.00240321
-0.00349081
-0.00529957
-0.00573829
-0.00257309
-0.0021098
-0.0039939
-0.00339119
-0.00307797
-0.00408128
-0.00379362
-0.00320066
-0.00307441
-0.00305167
-0.0017483
-0.00247538
-0.00292041
-0.00352488
-0.00393088
-0.00328338
-0.00443985
-0.00449646
-0.00340211
-0.00065646
-0.000906486
-0.00327827
-0.00428946
-0.00572374
-0.00502403
-0.00319528
-0.0028762
-0.00659229
-0.00671254
-0.00321248
-0.00593727
-0.00562804
-0.00308156
-0.00276293
-0.00264221
-0.00362605
-0.00387301
-0.00432048
-0.00403153
-0.00459529
-0.00466159
-0.0032823
-0.00458465
-0.00429461
-0.00336675
-0.00266753
-0.00193447
-0.0036047
-0.00458992
-0.00345537
-0.00264876
-0.00327541
-0.00311886
-0.00569914
-0.00418844
-0.00306774
-0.00447866
-0.00136109
-0.00200615
-0.00629056
-0.00585956
-0.00185363
-0.00179939
-0.00294146
-0.00368172
-0.0043025
-0.00332398
-0.00285626
-0.00389414
-0.00396887
-0.00300895
-0.00274247
-0.00197942
-0.00197807
-0.00495881
-0.00500758
-0.00130957
-0.00246203
-0.00379878
-0.00269719
-0.00327207
-0.00361164
-0.00305043
-0.00461643
-0.00401289
-0.00324508
-0.00289605
-0.00207852
-0.00381471
-0.00485047
-0.00415048
-0.00351745
-0.00325321
-0.00209289
-0.00420199
-0.00449312
-0.00430699
-0.00494509
-0.00271908
-0.00290262
-0.00459294
-0.00326842
-0.00104461
-0.00390814
-0.00604672
-0.00384171
-0.00347311
-0.00317355
-0.0032754
-0.00211171
-0.0027277
-0.00504713
-0.0017207
-0.00109399
-0.00268981
-0.00167304
-0.00313799
-0.00537416
-0.00512832
-0.00286913
-0.0026642
-0.00325836
-0.00591086
-0.00615168
-0.003718
-0.00332785
-0.00199141
-0.00375566
-0.00476223
-0.00409254
-0.00374363
-0.00284366
-0.00191628
-0.00279747
-0.00421013
-0.00292882
-0.00320884
-0.00384043
-0.00364849
-0.00519025
-0.00564622
-0.00372938
-0.00400462
-0.00439532
-0.00466915
-0.00435072
-0.00329733
-0.00315504
-0.00173315
-0.0024519
-0.00453838
-0.00429078
-0.00307089
-0.00299831
-0.00294896
-0.00186765
-0.00299259
-0.003822
-0.00275889
-0.00644476
-0.0101684
)
;

boundaryField
{
    left
    {
        type            zeroGradient;
    }
    right
    {
        type            zeroGradient;
    }
    empty
    {
        type            empty;
    }
}


// ************************************************************************* //
