/*--------------------------------*- C++ -*----------------------------------*\
| =========                 |                                                 |
| \\      /  F ield         | OpenFOAM: The Open Source CFD Toolbox           |
|  \\    /   O peration     | Version:  v1706                                 |
|   \\  /    A nd           | Web:      www.OpenFOAM.com                      |
|    \\/     M anipulation  |                                                 |
\*---------------------------------------------------------------------------*/
FoamFile
{
    version     2.0;
    format      ascii;
    class       surfaceScalarField;
    location    "400";
    object      phi;
}
// * * * * * * * * * * * * * * * * * * * * * * * * * * * * * * * * * * * * * //

dimensions      [0 3 -1 0 0 0 0];
oriented        oriented;


internalField   nonuniform List<scalar> 
799
(
0
3.85803e-15
3.9968e-15
3.9968e-15
3.55271e-15
3.77476e-15
3.55271e-15
3.49026e-15
3.747e-15
3.55271e-15
3.76088e-15
3.69149e-15
3.63598e-15
3.91354e-15
3.68455e-15
3.81639e-15
3.6221e-15
3.76088e-15
3.77476e-15
3.4972e-15
3.55271e-15
3.60822e-15
3.66374e-15
3.77476e-15
3.80251e-15
3.66374e-15
3.71925e-15
3.60129e-15
3.77476e-15
3.79211e-15
3.88578e-15
3.77476e-15
3.76782e-15
3.88578e-15
3.747e-15
4.21885e-15
3.88578e-15
4.05231e-15
3.88578e-15
4.03844e-15
4.17721e-15
4.05925e-15
4.10783e-15
3.9968e-15
3.9968e-15
3.9968e-15
3.66374e-15
3.747e-15
3.66374e-15
3.96905e-15
3.66374e-15
3.92741e-15
3.9968e-15
3.88578e-15
4.02456e-15
3.76782e-15
3.88578e-15
3.83027e-15
3.9968e-15
3.66374e-15
3.77476e-15
3.88578e-15
3.88578e-15
3.94129e-15
3.747e-15
3.83027e-15
3.55271e-15
3.85803e-15
3.55271e-15
3.83027e-15
3.63598e-15
3.77476e-15
3.63598e-15
3.70537e-15
3.88578e-15
3.63598e-15
3.41394e-15
3.49373e-15
3.40006e-15
3.58047e-15
3.60822e-15
3.55271e-15
3.60822e-15
3.59088e-15
3.66374e-15
3.27516e-15
3.85803e-15
3.55271e-15
3.44169e-15
3.21965e-15
3.33067e-15
3.33067e-15
3.21965e-15
3.33067e-15
3.38618e-15
3.21965e-15
3.66374e-15
3.10862e-15
3.33067e-15
3.10862e-15
3.33067e-15
3.21965e-15
3.27516e-15
3.34455e-15
3.33067e-15
3.4972e-15
3.3723e-15
3.08087e-15
3.38618e-15
3.41741e-15
3.05311e-15
3.27516e-15
3.33067e-15
3.4972e-15
3.08087e-15
3.41047e-15
3.16414e-15
3.33067e-15
3.19189e-15
3.10862e-15
3.44169e-15
3.4972e-15
3.46945e-15
3.44169e-15
3.55271e-15
3.66374e-15
3.66374e-15
3.66374e-15
3.40006e-15
3.35149e-15
3.69149e-15
3.21271e-15
3.66374e-15
3.4972e-15
3.45557e-15
3.60822e-15
3.30291e-15
3.45557e-15
3.55271e-15
3.51108e-15
3.4972e-15
3.16414e-15
3.56659e-15
3.41394e-15
3.21965e-15
3.4972e-15
3.38618e-15
3.55271e-15
3.38618e-15
3.11209e-15
3.27516e-15
3.29597e-15
2.94209e-15
3.4972e-15
3.27516e-15
3.33067e-15
3.35842e-15
3.21965e-15
3.36536e-15
3.29597e-15
3.46424e-15
3.33067e-15
3.28904e-15
3.27516e-15
3.30291e-15
3.2474e-15
3.46945e-15
2.9976e-15
3.44863e-15
3.10862e-15
3.27863e-15
3.10862e-15
3.44169e-15
3.05311e-15
3.55271e-15
3.27516e-15
3.55271e-15
3.55271e-15
3.17801e-15
3.48853e-15
3.42087e-15
3.40006e-15
3.48679e-15
3.33067e-15
3.4972e-15
3.44169e-15
3.33067e-15
3.38618e-15
3.33067e-15
3.30291e-15
3.46945e-15
3.33067e-15
3.44169e-15
3.21965e-15
3.52496e-15
3.10862e-15
3.4972e-15
3.02883e-15
3.33067e-15
3.34455e-15
3.36883e-15
3.27516e-15
3.35842e-15
3.30291e-15
3.44169e-15
3.38618e-15
3.55271e-15
2.9976e-15
3.27516e-15
3.32373e-15
3.2474e-15
3.33067e-15
3.41394e-15
3.33067e-15
3.3723e-15
3.6221e-15
3.38618e-15
3.33067e-15
3.41394e-15
3.21965e-15
3.26128e-15
3.27516e-15
3.27516e-15
3.30291e-15
3.44169e-15
3.19189e-15
3.44169e-15
3.33067e-15
3.23352e-15
3.38618e-15
3.21965e-15
3.35842e-15
3.33067e-15
3.17801e-15
3.13638e-15
3.34455e-15
2.9976e-15
3.1225e-15
3.10862e-15
3.03924e-15
3.33067e-15
3.16414e-15
3.21965e-15
3.44169e-15
3.08087e-15
3.33067e-15
2.96985e-15
3.38618e-15
3.33761e-15
3.26128e-15
3.43475e-15
3.44169e-15
2.88658e-15
3.21965e-15
3.38618e-15
2.77556e-15
3.27516e-15
2.79984e-15
3.33067e-15
3.10862e-15
3.13638e-15
3.10862e-15
2.85882e-15
3.16414e-15
2.88658e-15
3.16414e-15
2.72005e-15
3.10862e-15
3.21965e-15
3.16414e-15
3.28904e-15
3.21965e-15
3.46945e-15
3.10862e-15
3.17454e-15
3.21965e-15
3.38618e-15
3.34455e-15
3.35842e-15
3.38618e-15
3.40006e-15
3.4972e-15
3.55271e-15
3.21965e-15
3.4972e-15
3.44169e-15
3.33067e-15
3.2821e-15
3.60822e-15
3.16414e-15
3.29597e-15
3.38618e-15
3.55271e-15
3.33067e-15
3.35842e-15
3.63598e-15
3.55271e-15
3.55271e-15
3.44169e-15
3.44169e-15
3.55271e-15
3.69149e-15
3.2474e-15
3.66374e-15
3.44169e-15
3.38618e-15
3.55271e-15
3.44169e-15
3.33067e-15
3.36536e-15
3.42781e-15
3.30291e-15
3.48679e-15
3.27516e-15
3.44169e-15
3.33067e-15
3.33067e-15
3.27516e-15
3.55271e-15
3.63598e-15
3.33067e-15
3.61516e-15
3.64986e-15
3.77476e-15
3.55271e-15
3.60822e-15
3.70537e-15
3.46945e-15
3.70537e-15
3.56659e-15
3.85803e-15
3.66374e-15
3.88578e-15
3.58047e-15
3.64986e-15
3.71925e-15
3.76088e-15
3.52496e-15
3.66374e-15
3.63251e-15
3.66374e-15
3.60129e-15
3.55271e-15
3.3723e-15
3.55271e-15
3.44169e-15
3.55271e-15
3.77476e-15
3.77476e-15
3.69149e-15
3.71925e-15
3.747e-15
3.80251e-15
3.80251e-15
3.77476e-15
3.87884e-15
3.96905e-15
3.85803e-15
3.71925e-15
3.91354e-15
3.71925e-15
3.70537e-15
3.80251e-15
3.56659e-15
3.66374e-15
3.63598e-15
3.69149e-15
3.77476e-15
3.38618e-15
3.46945e-15
3.66374e-15
3.44169e-15
3.67761e-15
3.55271e-15
3.71925e-15
3.59088e-15
3.33067e-15
3.83027e-15
3.44343e-15
3.35842e-15
3.45557e-15
3.66374e-15
3.38618e-15
3.55271e-15
3.33067e-15
3.33761e-15
3.33067e-15
3.66374e-15
3.03924e-15
3.55271e-15
3.17107e-15
3.17801e-15
3.11556e-15
3.21965e-15
3.10862e-15
3.21965e-15
3.26128e-15
2.77556e-15
3.21965e-15
3.2821e-15
3.38618e-15
3.10862e-15
3.02883e-15
3.38618e-15
3.21965e-15
3.16414e-15
3.16414e-15
3.2474e-15
3.21965e-15
2.79637e-15
3.30291e-15
3.08087e-15
2.88658e-15
3.33067e-15
3.10862e-15
2.9976e-15
2.77556e-15
2.83107e-15
2.77556e-15
2.90046e-15
2.75127e-15
2.80331e-15
2.88658e-15
2.90046e-15
2.88658e-15
2.77556e-15
2.6229e-15
2.77556e-15
2.88658e-15
2.94903e-15
2.88658e-15
2.94209e-15
2.44249e-15
2.47025e-15
2.66454e-15
2.55351e-15
2.498e-15
2.77556e-15
2.38698e-15
2.44249e-15
2.47025e-15
2.52576e-15
2.33147e-15
2.498e-15
2.27596e-15
2.498e-15
2.83107e-15
2.58127e-15
2.55351e-15
2.44249e-15
2.60902e-15
2.33147e-15
2.38698e-15
2.55351e-15
2.10942e-15
2.44249e-15
2.35922e-15
2.44249e-15
2.10942e-15
2.22045e-15
2.16493e-15
2.2482e-15
2.22045e-15
1.88738e-15
2.33147e-15
2.15106e-15
1.77636e-15
2.22045e-15
1.90473e-15
2.16493e-15
2.11289e-15
2.33147e-15
2.27596e-15
2.22045e-15
1.88738e-15
2.44249e-15
2.10942e-15
2.02616e-15
2.10942e-15
2.30371e-15
2.01228e-15
2.16493e-15
1.9984e-15
2.77556e-15
2.44249e-15
2.33147e-15
2.498e-15
2.17881e-15
2.44249e-15
2.52576e-15
2.66454e-15
2.48412e-15
2.498e-15
2.44249e-15
2.44249e-15
2.72005e-15
2.33147e-15
2.66454e-15
2.62984e-15
2.44249e-15
2.33147e-15
2.27596e-15
2.22045e-15
2.08167e-15
2.13718e-15
2.33147e-15
2.10942e-15
2.38698e-15
2.33147e-15
1.88738e-15
2.31933e-15
2.22045e-15
2.10942e-15
2.10942e-15
1.88738e-15
2.38698e-15
2.10248e-15
2.13718e-15
2.22045e-15
2.08167e-15
2.19269e-15
2.38698e-15
2.15106e-15
2.27596e-15
2.2482e-15
1.81452e-15
1.97065e-15
2.10942e-15
2.05391e-15
2.22045e-15
1.85962e-15
2.08167e-15
1.9984e-15
2.05391e-15
1.77636e-15
1.85962e-15
1.77636e-15
2.2482e-15
2.10942e-15
2.13718e-15
2.06085e-15
2.1684e-15
1.9984e-15
2.23432e-15
2.22045e-15
2.35922e-15
2.34535e-15
2.22045e-15
2.44249e-15
2.16147e-15
2.33147e-15
2.28983e-15
2.22045e-15
1.9984e-15
2.02616e-15
2.10942e-15
1.83187e-15
1.83187e-15
1.9984e-15
1.88738e-15
2.05391e-15
2.27596e-15
1.97065e-15
1.88738e-15
2.16493e-15
2.09555e-15
1.88738e-15
1.88044e-15
1.94289e-15
1.84575e-15
1.77636e-15
1.88044e-15
1.94289e-15
1.88044e-15
1.91513e-15
1.77636e-15
1.94289e-15
1.88738e-15
1.77636e-15
1.88738e-15
1.9984e-15
1.66533e-15
1.94289e-15
1.69309e-15
1.63064e-15
1.59942e-15
1.66533e-15
1.60982e-15
1.44329e-15
1.55431e-15
1.44329e-15
1.44329e-15
1.22125e-15
1.22125e-15
9.99201e-16
1.22125e-15
1.27676e-15
9.99201e-16
1.33227e-15
1.13798e-15
1.11022e-15
1.08247e-15
1.2039e-15
8.88178e-16
9.99201e-16
1.54043e-15
1.11022e-15
1.33227e-15
1.33227e-15
1.27676e-15
1.22125e-15
1.11022e-15
1.4988e-15
1.22125e-15
1.22125e-15
1.11022e-15
1.30451e-15
1.27676e-15
1.4988e-15
1.38778e-15
1.55431e-15
1.44329e-15
1.44329e-15
1.11022e-15
1.27676e-15
1.52656e-15
1.55431e-15
1.42941e-15
1.36002e-15
1.55431e-15
1.39472e-15
1.44329e-15
1.32533e-15
1.4988e-15
1.4988e-15
1.38778e-15
1.38778e-15
1.38778e-15
1.33227e-15
1.41553e-15
1.44329e-15
1.58207e-15
1.65146e-15
1.60982e-15
1.40166e-15
1.69309e-15
1.55431e-15
1.5812e-15
1.66533e-15
1.52656e-15
1.55431e-15
1.44329e-15
1.7486e-15
1.36002e-15
1.4988e-15
1.32186e-15
1.27676e-15
1.33227e-15
1.44329e-15
1.33227e-15
1.55431e-15
1.55431e-15
1.52656e-15
1.27676e-15
1.47105e-15
1.22125e-15
1.11022e-15
1.22125e-15
1.11022e-15
1.20737e-15
1.22125e-15
1.29063e-15
1.32533e-15
1.16573e-15
1.22125e-15
1.17961e-15
1.04083e-15
1.47105e-15
9.88792e-16
1.11022e-15
1.11022e-15
1.47105e-15
1.08247e-15
1.4988e-15
1.22125e-15
1.38778e-15
1.33227e-15
1.44329e-15
1.52656e-15
1.44329e-15
1.47105e-15
1.55431e-15
1.11022e-15
1.11022e-15
1.22125e-15
1.11022e-15
8.88178e-16
8.88178e-16
1.06859e-15
6.66134e-16
1.04083e-15
9.99201e-16
9.99201e-16
1.19349e-15
9.99201e-16
1.1241e-15
1.11022e-15
1.27329e-15
1.27676e-15
1.16573e-15
1.249e-15
1.3288e-15
9.99201e-16
1.02696e-15
7.77156e-16
8.88178e-16
7.21645e-16
9.4369e-16
7.49401e-16
8.04912e-16
8.32667e-16
6.10623e-16
8.88178e-16
5.55112e-16
7.49401e-16
6.66134e-16
6.10623e-16
8.32667e-16
5.82867e-16
7.21645e-16
5.82867e-16
7.21645e-16
6.66134e-16
6.66134e-16
4.996e-16
6.10623e-16
6.66134e-16
5.06539e-16
8.88178e-16
3.33067e-16
7.77156e-16
8.88178e-16
7.77156e-16
4.44089e-16
5.55112e-16
3.747e-16
5.75928e-16
4.996e-16
3.88578e-16
3.33067e-16
5.55112e-16
2.77556e-16
2.22045e-16
2.77556e-16
3.33067e-16
3.33067e-16
3.46945e-16
2.22045e-16
3.67761e-16
3.60822e-16
1.11022e-16
4.996e-16
4.44089e-16
4.996e-16
3.33067e-16
3.33067e-16
3.88578e-16
3.05311e-16
3.60822e-16
3.88578e-16
4.71845e-16
3.33067e-16
3.88578e-16
0
3.33067e-16
1.38778e-16
2.77556e-17
1.66533e-16
1.66533e-16
-1.11022e-16
8.32667e-17
-8.32667e-17
1.38778e-16
-1.94289e-16
-5.55112e-17
-6.93889e-17
-5.55112e-17
-2.22045e-16
1.11022e-16
-1.94289e-16
1.66533e-16
2.77556e-17
-1.38778e-17
0
0
2.77556e-17
1.66533e-16
-2.22045e-16
-2.22045e-16
)
;

boundaryField
{
    left
    {
        type            calculated;
        value           uniform 0;
    }
    right
    {
        type            calculated;
        value           uniform 0;
    }
    empty
    {
        type            empty;
        value           nonuniform 0();
    }
}


// ************************************************************************* //
