/*--------------------------------*- C++ -*----------------------------------*\
| =========                 |                                                 |
| \\      /  F ield         | OpenFOAM: The Open Source CFD Toolbox           |
|  \\    /   O peration     | Version:  v1706                                 |
|   \\  /    A nd           | Web:      www.OpenFOAM.com                      |
|    \\/     M anipulation  |                                                 |
\*---------------------------------------------------------------------------*/
FoamFile
{
    version     2.0;
    format      ascii;
    class       surfaceScalarField;
    location    "400";
    object      phiB;
}
// * * * * * * * * * * * * * * * * * * * * * * * * * * * * * * * * * * * * * //

dimensions      [1 2 -2 0 0 -1 0];
oriented        oriented;


internalField   nonuniform List<scalar> 
799
(
618.793
612.628
615.248
614.505
614.03
616.006
615.805
611.013
615.93
612.87
614.846
614.972
613.825
614.409
614.526
615.063
613.582
615.291
614.767
614.382
615.92
616.44
613.354
613.126
618.627
611.695
617.469
612.031
617.738
610.831
614.954
613.729
614.343
616.709
614.258
614.936
615.426
613.821
616.087
613.073
615.274
614.172
616.11
617.393
613.68
610.224
614.217
617.746
616.689
609.233
615.791
615.69
610.705
617.733
615.116
614.263
616.119
614.703
612.021
613.699
616.167
615.048
615.773
614.462
616.396
610.897
614.701
616.709
614.803
613.345
616.76
615.455
610.087
615.881
613.885
614.691
613.904
614.516
614.355
614.638
614.95
614.583
619.753
610.787
613.452
613.975
613.563
616.491
615.877
615.412
615.236
613.36
615.519
613.438
614.33
614.506
615.719
614.558
615.84
614.708
614.253
616.619
610.654
614.85
615.967
615.596
615.99
610.335
617.405
614.192
616.33
610.305
614.6
615.159
616.461
615.248
612.938
615.411
616.161
614.315
614.073
612.658
615.527
614.63
617.071
609.09
617.343
616.825
612.542
614.695
615.11
617.098
615.423
611.362
616.702
612.34
614.652
614.54
614.6
612.527
616.09
615.291
617.389
612.091
614.479
615.46
616.017
612.92
614.567
616.315
610.139
616.459
616.119
613.428
614.475
616.86
609.364
615.457
613.703
617.631
616.277
616.231
613.285
615.775
615.045
614.72
615.08
609.733
613.816
618.2
615.094
616.194
609.572
617.573
615.184
611.159
613.417
618.098
613.896
613.333
616.7
615.52
612.851
614.088
614.028
612.825
615.213
614.338
617.566
611.113
615.458
617.032
614.081
616.287
618.825
612.997
614.728
611.692
616.255
613.63
613.724
616.657
614.766
609.641
615.945
616.295
615.42
614.543
616.672
609.037
618.2
614.963
613.11
617.446
609.639
617.943
614.217
612.917
615.897
615.243
616.134
612.681
614.99
611.972
615.695
616.855
615.213
613.284
618.615
609.9
614.293
614.811
615.48
614.683
613.844
615.856
614.075
614.883
616.495
614.746
609.769
619.079
613.363
614.776
612.124
613.585
617.401
614.954
615.868
611.6
613.457
617.515
612.383
618.004
609.975
618.867
612.475
614.101
617.966
616.249
612.192
616.579
614.398
612.064
615.597
614.695
611.802
615.188
613.685
615.743
614.402
614.083
616.332
615.391
614.714
614.934
613.688
617.644
613.539
610.162
614.75
613.967
614.93
615.433
614.723
615.293
615.586
613.973
615.714
615.101
612.675
612.972
618.355
614.862
615.094
616.189
613.831
610.136
615.735
612.952
615.25
615.487
617.103
616.842
611.662
613.64
616.968
613.536
614.432
614.025
617.763
610.466
613.539
617.286
613.429
617.938
609.928
616.827
614.084
614.773
616.32
610.892
615.332
617.579
613.619
614.394
614.263
616.231
610.492
617.106
614.338
616.222
615.091
613.126
616.979
613.503
614.713
612.636
616.6
612.936
617.579
610.109
615.723
616.646
613.382
615.042
614.982
613.07
615.166
613.699
615.653
615.926
611.254
615.704
614.467
613.47
618.488
613.992
612.977
616.555
616.566
612.979
612.433
613.311
614.869
615.1
620.678
613.786
612.074
616.08
611.797
618.67
611.911
615.235
613.756
614.627
614.134
615.503
610.42
617.387
613.56
613.252
615.979
615.9
617.621
610.2
615.527
615.309
614.87
614.209
615.151
613.218
614.458
618.561
610.405
616.451
612.369
617.842
612.692
617.72
611.876
615.39
615.195
617.793
608.671
615.916
613.095
615.257
614.336
613.791
614.328
618.519
614.101
616.042
611.163
613.851
616.589
613.657
618.307
615.157
613.455
613.325
613.29
615.426
615.205
613.857
613.509
616.473
613.162
613.25
618.236
614.587
611.484
618.005
616.916
611.161
615.593
614.688
615.987
614.58
614.334
614.671
611.724
614.799
616.479
614.307
613.081
616.033
613.421
616.282
614.424
610.436
616.791
613.711
618.797
612.854
613.49
615.476
616.806
613.906
613.976
614.762
614.068
614.805
614.498
612.247
614.052
615.519
613.636
615.885
612.909
619.858
612.724
615.698
614.115
616.651
609.146
616.584
614.922
614.422
615.588
610.759
615.77
615.127
616.001
614.627
618.691
609.721
614.098
617.503
614.479
614.536
614.609
615.991
611.319
616.645
613.324
615.066
616.067
610.608
615.952
615.646
616.384
613.983
612.301
616.764
615.488
614.483
611.817
612.788
616.551
615.715
615.645
611.931
613.301
616.925
614.82
613.067
615.577
613.337
616.535
614.964
613.254
618.286
610.709
619.708
613.978
610.965
616.084
614.384
614.521
613.343
614.433
617.204
614.551
613.67
614.873
613.544
616.877
615.549
614.622
609.51
614.618
615.968
615.067
614.563
614.378
615.716
615.214
613.138
617.446
614.475
614.739
613.995
617.126
610.291
613.596
614.031
619.633
613.394
612.466
614.823
614.872
614.949
615.488
613.39
618.042
610.281
614.293
616.533
615.864
611.441
618.327
616.126
611.409
615.009
611.116
615.469
615.139
613.197
618.515
613.743
614.895
615.262
614.526
615.474
615.164
614.936
614.472
612.628
614.649
615.564
613.386
616.347
615.543
609.595
616.456
614.675
615.797
615.753
614.861
610.227
613.31
615.912
614.517
617.186
614.616
613.518
616.189
614.991
615.92
615.12
610.779
617.555
614.304
614.773
616.599
611.075
614.678
613.311
616.291
614.538
614.225
615.156
614.912
616.638
612.064
612.855
615.393
616.071
614.598
616.657
610.617
614.63
615.652
614.889
613.329
616.197
613.511
617.218
613.65
615.227
615.635
612.219
613.633
615.356
613.549
618.041
614.475
613.729
615.208
613.082
614.992
613.704
615.461
615.02
614.124
613.601
615.839
616.138
613.784
614.943
616.083
610.566
615.845
617.31
609.549
617.64
616.644
609.094
617.489
615.109
619.744
610.675
614.61
613.591
617.488
615.138
612.754
614.037
615.279
613.309
612.17
614.526
614.076
615.905
617.767
613.833
613.746
613.924
616.998
611.682
615.256
616.635
614.678
615.154
611.323
615.256
615.393
615.824
612.657
614.778
614.85
615.417
615.549
615.213
612.835
616.174
617.477
615.027
614.183
612.828
612.909
614.596
614.437
614.005
615.15
617.43
613.304
612.631
611.937
617.533
614.429
616.837
614.246
611.352
614.681
617.397
614.157
613.348
617.188
609.682
615.451
616.294
614.952
613.159
619.3
611.284
615.436
614.454
616.055
612.108
617.138
614.17
616.217
614.304
614.216
613.906
615.284
614.598
615.523
611.811
614.804
614.468
614.875
617.04
614.458
615.008
609.304
615.495
615.946
614.884
613.198
615.001
614.236
615.775
616.041
615.358
615.34
611.316
613.211
615.115
614.656
616.683
614.105
615.098
614.587
615.596
611.097
618.207
613.259
614.993
613.753
615.481
613.799
615.07
615.062
613.585
615.598
614.541
613.755
613.747
617.613
614.529
613.066
614.732
616.969
612.508
610.115
)
;

boundaryField
{
    left
    {
        type            calculated;
        value           uniform 608.452;
    }
    right
    {
        type            calculated;
        value           uniform -618.984;
    }
    empty
    {
        type            empty;
        value           nonuniform 0();
    }
}


// ************************************************************************* //
