/*--------------------------------*- C++ -*----------------------------------*\
| =========                 |                                                 |
| \\      /  F ield         | OpenFOAM: The Open Source CFD Toolbox           |
|  \\    /   O peration     | Version:  v1706                                 |
|   \\  /    A nd           | Web:      www.OpenFOAM.com                      |
|    \\/     M anipulation  |                                                 |
\*---------------------------------------------------------------------------*/
FoamFile
{
    version     2.0;
    format      ascii;
    class       volVectorField;
    location    "400";
    object      U;
}
// * * * * * * * * * * * * * * * * * * * * * * * * * * * * * * * * * * * * * //

dimensions      [0 1 -1 0 0 0 0];


internalField   nonuniform List<vector> 
800
(
(-0.000645792 0 0)
(0.000386216 0 0)
(2.09297e-05 0 0)
(-0.000190731 0 0)
(-0.000147108 0 0)
(-0.000247813 0 0)
(0.00102208 0 0)
(-0.000891233 0 0)
(0.000617171 0 0)
(-0.000475191 0 0)
(7.69859e-05 0 0)
(0.000272995 0 0)
(-0.000318167 0 0)
(5.25646e-05 0 0)
(0.000295222 0 0)
(-0.000469075 0 0)
(0.0004567 0 0)
(-0.000276914 0 0)
(0.000201477 0 0)
(-0.000361336 0 0)
(0.000137076 0 0)
(0.000349506 0 0)
(-2.88879e-05 0 0)
(-0.000393668 0 0)
(-2.81364e-05 0 0)
(0.000143937 0 0)
(0.000122538 0 0)
(2.89561e-05 0 0)
(8.75973e-05 0 0)
(-0.000626836 0 0)
(0.000656133 0 0)
(-0.000524828 0 0)
(0.000942821 0 0)
(-0.000803688 0 0)
(-3.94818e-05 0 0)
(-7.07934e-05 0 0)
(0.000599409 0 0)
(-6.59951e-05 0 0)
(-0.000374989 0 0)
(-0.000159541 0 0)
(0.000541426 0 0)
(-0.000490778 0 0)
(0.000359006 0 0)
(-0.00043413 0 0)
(0.00139387 0 0)
(-0.00220834 0 0)
(0.00134536 0 0)
(0.000116541 0 0)
(-0.000326799 0 0)
(-0.000579378 0 0)
(0.000727222 0 0)
(0.000227821 0 0)
(-0.000590139 0 0)
(-6.71489e-05 0 0)
(0.000634076 0 0)
(-0.000598967 0 0)
(0.000181009 0 0)
(0.000611454 0 0)
(-0.000975857 0 0)
(0.000335775 0 0)
(0.000164816 0 0)
(-0.000439164 0 0)
(0.000882474 0 0)
(-0.000688271 0 0)
(6.47384e-05 0 0)
(0.000271946 0 0)
(-0.000184853 0 0)
(-0.000280686 0 0)
(0.000475231 0 0)
(9.53192e-06 0 0)
(-0.000542186 0 0)
(0.000494999 0 0)
(-0.000216139 0 0)
(0.000185068 0 0)
(-3.2326e-05 0 0)
(-0.000228222 0 0)
(2.50684e-05 0 0)
(0.000374451 0 0)
(-0.000467532 0 0)
(0.000514092 0 0)
(-0.000952679 0 0)
(0.00123931 0 0)
(-0.000812377 0 0)
(0.000329621 0 0)
(-9.73427e-05 0 0)
(-0.000103345 0 0)
(5.78012e-05 0 0)
(-0.00011657 0 0)
(0.00097005 0 0)
(-0.00180008 0 0)
(0.00122964 0 0)
(6.13465e-05 0 0)
(-0.000594136 0 0)
(0.000286217 0 0)
(0.000421318 0 0)
(-0.000583544 0 0)
(-0.000573199 0 0)
(0.000914658 0 0)
(0.00123342 0 0)
(-0.00269287 0 0)
(0.00139837 0 0)
(-1.31851e-05 0 0)
(-0.00014997 0 0)
(0.000199296 0 0)
(-0.00015722 0 0)
(4.50856e-05 0 0)
(-0.000363388 0 0)
(0.000567311 0 0)
(-0.000128759 0 0)
(-0.000451866 0 0)
(0.000357027 0 0)
(5.20047e-05 0 0)
(0.000127498 0 0)
(-0.000295693 0 0)
(-0.000159025 0 0)
(0.000636072 0 0)
(-0.000514541 0 0)
(-0.000186939 0 0)
(0.000752617 0 0)
(-0.000584632 0 0)
(4.76344e-06 0 0)
(7.75157e-05 0 0)
(0.000349159 0 0)
(3.78564e-05 0 0)
(-0.000935734 0 0)
(0.000648513 0 0)
(0.000399501 0 0)
(-0.000579419 0 0)
(-4.81282e-05 0 0)
(0.000343409 0 0)
(-0.000358018 0 0)
(0.000430589 0 0)
(-0.000600534 0 0)
(0.000685466 0 0)
(-0.000320621 0 0)
(-9.92695e-05 0 0)
(0.000363907 0 0)
(-0.000522128 0 0)
(0.000386353 0 0)
(-0.000157953 0 0)
(0.000393961 0 0)
(-0.000787231 0 0)
(0.000670134 0 0)
(-0.000272172 0 0)
(-0.000399547 0 0)
(0.00095483 0 0)
(-0.000599401 0 0)
(0.000115941 0 0)
(6.72585e-05 0 0)
(-0.000451095 0 0)
(0.000507647 0 0)
(-0.000153123 0 0)
(0.000193012 0 0)
(-0.00074014 0 0)
(0.00115873 0 0)
(-0.000559515 0 0)
(-0.000831183 0 0)
(0.00130823 0 0)
(-0.00068762 0 0)
(0.000303512 0 0)
(-0.000282401 0 0)
(0.000183488 0 0)
(1.43691e-05 0 0)
(-2.03234e-05 0 0)
(-0.000209707 0 0)
(0.000284271 0 0)
(-0.000288733 0 0)
(0.000694704 0 0)
(-0.00128714 0 0)
(0.00128577 0 0)
(-0.000857002 0 0)
(0.000509189 0 0)
(0.000302607 0 0)
(-0.00116105 0 0)
(0.000611957 0 0)
(0.000689503 0 0)
(-0.00115868 0 0)
(0.000720266 0 0)
(-0.000163463 0 0)
(-2.1673e-05 0 0)
(-4.84113e-06 0 0)
(-1.79851e-05 0 0)
(0.00012995 0 0)
(-0.000502597 0 0)
(0.00117845 0 0)
(-0.0012514 0 0)
(0.000234586 0 0)
(0.000494673 0 0)
(0.000102001 0 0)
(-0.000877552 0 0)
(0.000800552 0 0)
(-0.000367897 0 0)
(-0.000160372 0 0)
(0.000873879 0 0)
(-0.00127783 0 0)
(0.00107954 0 0)
(-0.000529513 0 0)
(-2.15512e-05 0 0)
(1.72716e-05 0 0)
(0.000368146 0 0)
(-0.000452103 0 0)
(0.000257283 0 0)
(1.9235e-05 0 0)
(-6.87129e-05 0 0)
(-0.000349079 0 0)
(0.00100552 0 0)
(-0.00113424 0 0)
(0.000163359 0 0)
(0.000872528 0 0)
(-0.00107566 0 0)
(0.000924273 0 0)
(-9.47951e-05 0 0)
(-0.00134743 0 0)
(0.00148404 0 0)
(-0.000318725 0 0)
(-0.000369859 0 0)
(0.000584272 0 0)
(-0.000445651 0 0)
(-0.000348297 0 0)
(0.000665864 0 0)
(-0.00014641 0 0)
(-0.000335772 0 0)
(0.000611194 0 0)
(-0.000539268 0 0)
(0.000533015 0 0)
(-0.000947973 0 0)
(0.00100863 0 0)
(-0.000882245 0 0)
(0.000997398 0 0)
(-0.000873327 0 0)
(0.000273816 0 0)
(0.000495792 0 0)
(-0.000839973 0 0)
(0.000773868 0 0)
(-0.000639639 0 0)
(0.000359889 0 0)
(-0.000451653 0 0)
(0.0010861 0 0)
(-0.00101405 0 0)
(0.0001837 0 0)
(3.53328e-05 0 0)
(0.000169663 0 0)
(0.000141431 0 0)
(-0.000313359 0 0)
(-0.000137885 0 0)
(0.000269837 0 0)
(-6.68036e-05 0 0)
(-8.19346e-05 0 0)
(0.000387349 0 0)
(-0.000591398 0 0)
(0.000651033 0 0)
(-0.000200488 0 0)
(-0.00110416 0 0)
(0.00201591 0 0)
(-0.00176314 0 0)
(0.00095562 0 0)
(-1.80755e-05 0 0)
(-0.000702308 0 0)
(0.00076107 0 0)
(-0.000364177 0 0)
(0.000165048 0 0)
(-0.000109609 0 0)
(-0.000197293 0 0)
(0.000383065 0 0)
(-0.000358044 0 0)
(0.000573065 0 0)
(-0.000615192 0 0)
(-0.000260287 0 0)
(0.00135632 0 0)
(-0.00140113 0 0)
(0.00090372 0 0)
(-0.000400021 0 0)
(-0.000393797 0 0)
(0.000511415 0 0)
(0.000186887 0 0)
(-0.000451512 0 0)
(2.92524e-05 0 0)
(0.000483454 0 0)
(-0.000546375 0 0)
(0.00043131 0 0)
(-0.000593232 0 0)
(0.000598058 0 0)
(4.96045e-05 0 0)
(-0.000290171 0 0)
(-0.000689072 0 0)
(0.00121564 0 0)
(-0.000882747 0 0)
(0.000957298 0 0)
(-0.000916058 0 0)
(0.000165815 0 0)
(0.000524568 0 0)
(-0.000426953 0 0)
(4.21328e-05 0 0)
(-0.000441932 0 0)
(0.00138578 0 0)
(-0.00196201 0 0)
(0.00156126 0 0)
(-5.54826e-05 0 0)
(-0.00122072 0 0)
(0.00105877 0 0)
(-6.84564e-05 0 0)
(-0.000761014 0 0)
(0.000984993 0 0)
(-0.000611234 0 0)
(1.19711e-05 0 0)
(0.000160135 0 0)
(0.000356521 0 0)
(-0.00071171 0 0)
(0.000265636 0 0)
(0.000344668 0 0)
(-0.000494113 0 0)
(0.000297239 0 0)
(-6.20631e-05 0 0)
(0.000138534 0 0)
(-0.000208464 0 0)
(-0.000326451 0 0)
(0.000720838 0 0)
(-0.000376816 0 0)
(0.000312615 0 0)
(-0.000938849 0 0)
(0.00115052 0 0)
(-0.000692855 0 0)
(0.000351023 0 0)
(-0.000293677 0 0)
(0.000421509 0 0)
(-0.000660262 0 0)
(0.00082642 0 0)
(-0.000777735 0 0)
(0.000588079 0 0)
(-0.000442333 0 0)
(0.000222858 0 0)
(0.00014568 0 0)
(-0.000358508 0 0)
(0.000150475 0 0)
(0.000110319 0 0)
(-0.000136972 0 0)
(0.000238732 0 0)
(-0.000362206 0 0)
(0.000105779 0 0)
(0.000340713 0 0)
(8.19326e-05 0 0)
(-0.00129791 0 0)
(0.00149843 0 0)
(-0.000733721 0 0)
(3.19762e-05 0 0)
(0.000818855 0 0)
(-0.000880426 0 0)
(-0.000305952 0 0)
(0.00129736 0 0)
(-0.00161611 0 0)
(0.00149395 0 0)
(-0.000998863 0 0)
(0.000723645 0 0)
(-0.000754113 0 0)
(0.000353636 0 0)
(0.000315483 0 0)
(-0.000545383 0 0)
(0.000570823 0 0)
(-0.000654658 0 0)
(0.000502362 0 0)
(-8.67252e-05 0 0)
(-0.000361562 0 0)
(0.000748435 0 0)
(-0.00110747 0 0)
(0.0010191 0 0)
(-0.000381147 0 0)
(-4.50351e-05 0 0)
(0.000485817 0 0)
(-0.0010276 0 0)
(0.00083408 0 0)
(-0.000504146 0 0)
(0.00102959 0 0)
(-0.00185896 0 0)
(0.00163591 0 0)
(-0.000725247 0 0)
(0.000523551 0 0)
(-0.000331778 0 0)
(-0.000210122 0 0)
(0.000221408 0 0)
(-0.000185498 0 0)
(0.00052832 0 0)
(-0.000436996 0 0)
(-0.00037256 0 0)
(0.000590904 0 0)
(0.000358291 0 0)
(-0.00118888 0 0)
(0.00116444 0 0)
(-0.000329673 0 0)
(-0.000785957 0 0)
(0.000794111 0 0)
(0.000241475 0 0)
(-0.000785169 0 0)
(0.000685109 0 0)
(-0.000303531 0 0)
(-0.000172952 0 0)
(0.000406736 0 0)
(-0.000646757 0 0)
(0.000746927 0 0)
(-0.000220003 0 0)
(-0.000554583 0 0)
(0.000655513 0 0)
(-9.05208e-06 0 0)
(-0.000574001 0 0)
(0.000621513 0 0)
(-0.000621169 0 0)
(0.000803936 0 0)
(-0.000518369 0 0)
(0.000118275 0 0)
(6.32225e-05 0 0)
(-0.000397798 0 0)
(0.000517122 0 0)
(-0.000458726 0 0)
(0.000567773 0 0)
(-0.000971567 0 0)
(0.00118425 0 0)
(-0.000202588 0 0)
(-0.000719014 0 0)
(0.00028371 0 0)
(0.000219587 0 0)
(-0.000178236 0 0)
(0.000125255 0 0)
(-2.5187e-05 0 0)
(-0.000569672 0 0)
(0.00145871 0 0)
(-0.00113801 0 0)
(-0.000843498 0 0)
(0.00262844 0 0)
(-0.00274717 0 0)
(0.00143473 0 0)
(3.03139e-06 0 0)
(-2.98912e-05 0 0)
(-0.000846475 0 0)
(0.000642322 0 0)
(0.000479141 0 0)
(-0.000883853 0 0)
(-3.17089e-06 0 0)
(0.000950869 0 0)
(-0.000316538 0 0)
(-0.000972453 0 0)
(0.000696778 0 0)
(0.000731731 0 0)
(-0.00162437 0 0)
(0.00175519 0 0)
(-0.00126284 0 0)
(0.000666348 0 0)
(-0.000344599 0 0)
(-0.000214133 0 0)
(0.000620394 0 0)
(-0.000588306 0 0)
(0.00101708 0 0)
(-0.00157068 0 0)
(0.000906185 0 0)
(0.000431143 0 0)
(-0.000874621 0 0)
(0.000574026 0 0)
(-0.000736301 0 0)
(0.00127045 0 0)
(-0.00107615 0 0)
(-0.000194425 0 0)
(0.00144465 0 0)
(-0.00150551 0 0)
(0.00102963 0 0)
(-0.000454931 0 0)
(-0.000506522 0 0)
(0.000925434 0 0)
(-0.00060747 0 0)
(0.000239925 0 0)
(1.39792e-05 0 0)
(-4.23762e-05 0 0)
(0.000168868 0 0)
(-0.000509606 0 0)
(0.000401066 0 0)
(9.41661e-06 0 0)
(0.000257487 0 0)
(-0.000690639 0 0)
(0.000182582 0 0)
(0.000767115 0 0)
(-0.00123269 0 0)
(0.00079518 0 0)
(0.000135829 0 0)
(-0.000695848 0 0)
(0.00111657 0 0)
(-0.00136719 0 0)
(0.000376676 0 0)
(0.00097352 0 0)
(-0.000883912 0 0)
(-0.000223106 0 0)
(0.00110079 0 0)
(-0.000770351 0 0)
(-0.000538225 0 0)
(0.000689237 0 0)
(0.00049447 0 0)
(-0.000876624 0 0)
(0.000575326 0 0)
(-0.00088209 0 0)
(0.00156377 0 0)
(-0.00184356 0 0)
(0.00123554 0 0)
(-0.000340016 0 0)
(0.000184731 0 0)
(-0.00019187 0 0)
(-0.000446842 0 0)
(0.000780075 0 0)
(-0.000453102 0 0)
(0.000415751 0 0)
(-0.000233659 0 0)
(-0.000608087 0 0)
(0.000931667 0 0)
(-0.000337993 0 0)
(-5.03996e-06 0 0)
(-0.000271683 0 0)
(7.71436e-05 0 0)
(0.000332519 0 0)
(0.000340449 0 0)
(-0.000988921 0 0)
(0.000471936 0 0)
(0.000172871 0 0)
(-0.000356172 0 0)
(0.00052419 0 0)
(-0.000712273 0 0)
(0.000531731 0 0)
(-0.000314432 0 0)
(0.000460296 0 0)
(-0.000331318 0 0)
(-0.000122576 0 0)
(0.000234256 0 0)
(-8.66267e-06 0 0)
(-0.000533204 0 0)
(0.000928059 0 0)
(-0.000358258 0 0)
(-0.000454305 0 0)
(0.000467328 0 0)
(-6.43895e-05 0 0)
(-0.000105984 0 0)
(-0.000307702 0 0)
(0.00115438 0 0)
(-0.000989035 0 0)
(-0.000421456 0 0)
(0.000968436 0 0)
(-0.000395674 0 0)
(0.000173848 0 0)
(-0.000286459 0 0)
(-8.58622e-05 0 0)
(0.000845359 0 0)
(-0.00080916 0 0)
(5.18542e-05 0 0)
(0.000221629 0 0)
(-0.000209558 0 0)
(0.000505299 0 0)
(-0.000839206 0 0)
(0.000654496 0 0)
(-4.96092e-05 0 0)
(-4.90035e-05 0 0)
(-7.53107e-05 0 0)
(-0.000481054 0 0)
(0.000690508 0 0)
(-9.05899e-05 0 0)
(-0.000338134 0 0)
(0.000726334 0 0)
(-0.0010446 0 0)
(0.000925622 0 0)
(-0.000981797 0 0)
(0.00121094 0 0)
(-0.000984538 0 0)
(0.000319408 0 0)
(0.000284268 0 0)
(-1.23958e-05 0 0)
(-0.000929696 0 0)
(0.00113836 0 0)
(-0.000565001 0 0)
(-7.70378e-05 0 0)
(0.000697698 0 0)
(-0.000754307 0 0)
(0.000237914 0 0)
(7.44376e-06 0 0)
(0.000573319 0 0)
(-0.00146464 0 0)
(0.0011297 0 0)
(-0.000240059 0 0)
(0.000511012 0 0)
(-0.000751454 0 0)
(-8.47437e-05 0 0)
(0.000764299 0 0)
(-0.00059789 0 0)
(0.000241769 0 0)
(-0.000174258 0 0)
(0.000310819 0 0)
(-0.00058515 0 0)
(0.000442691 0 0)
(0.000605391 0 0)
(-0.00170296 0 0)
(0.00174858 0 0)
(-0.000755773 0 0)
(-0.000131658 0 0)
(0.000138971 0 0)
(0.000450053 0 0)
(-0.000802024 0 0)
(0.000108728 0 0)
(0.000414176 0 0)
(0.000367682 0 0)
(-0.00103433 0 0)
(0.000876985 0 0)
(-0.000641389 0 0)
(0.000701058 0 0)
(-0.000331574 0 0)
(-0.000720226 0 0)
(0.000743952 0 0)
(0.000194741 0 0)
(-0.00021973 0 0)
(-0.000431696 0 0)
(0.000735467 0 0)
(-0.000427426 0 0)
(-0.000341872 0 0)
(0.00109164 0 0)
(-0.00137126 0 0)
(0.000708361 0 0)
(0.000281845 0 0)
(-0.000287005 0 0)
(-0.000395912 0 0)
(0.000578856 0 0)
(9.72552e-05 0 0)
(-0.000284744 0 0)
(-0.000853905 0 0)
(0.00135181 0 0)
(-0.000635498 0 0)
(0.000377721 0 0)
(-0.000488009 0 0)
(0.00024274 0 0)
(-2.16657e-05 0 0)
(0.00041653 0 0)
(-0.00123618 0 0)
(0.00133955 0 0)
(-0.000691428 0 0)
(0.000104916 0 0)
(0.00043843 0 0)
(-0.000651331 0 0)
(0.000678926 0 0)
(-0.00102746 0 0)
(0.000655145 0 0)
(0.000395825 0 0)
(-0.000454911 0 0)
(-0.000350789 0 0)
(0.000813506 0 0)
(-0.000642334 0 0)
(0.000207751 0 0)
(-4.34718e-05 0 0)
(0.000172137 0 0)
(-0.000232667 0 0)
(1.97602e-06 0 0)
(0.000549871 0 0)
(-0.000935288 0 0)
(0.00100887 0 0)
(-0.00106852 0 0)
(0.000926012 0 0)
(-0.000449766 0 0)
(-3.4206e-05 0 0)
(2.5691e-05 0 0)
(-0.000109082 0 0)
(0.000883579 0 0)
(-0.00102923 0 0)
(0.000448836 0 0)
(-0.000151553 0 0)
(-0.000274628 0 0)
(0.000442119 0 0)
(-2.33319e-06 0 0)
(0.000423249 0 0)
(-0.00169508 0 0)
(0.001691 0 0)
(-5.01425e-05 0 0)
(-0.001493 0 0)
(0.00162579 0 0)
(-0.000881613 0 0)
(0.000543291 0 0)
(-0.000392182 0 0)
(8.52729e-05 0 0)
(7.0961e-05 0 0)
(-0.000227116 0 0)
(0.000491972 0 0)
(-0.000717003 0 0)
(0.000558984 0 0)
(0.000128886 0 0)
(-0.000841222 0 0)
(0.00100032 0 0)
(-0.000855902 0 0)
(0.000812153 0 0)
(-0.000405962 0 0)
(-0.00010876 0 0)
(-0.000130363 0 0)
(0.000538316 0 0)
(-0.000354098 0 0)
(-1.53127e-05 0 0)
(0.000601988 0 0)
(-0.00173996 0 0)
(0.00248679 0 0)
(-0.00212985 0 0)
(0.000953164 0 0)
(0.000428693 0 0)
(-0.000449244 0 0)
(-0.000943212 0 0)
(0.00113329 0 0)
(0.000121154 0 0)
(-0.000580389 0 0)
(0.000314038 0 0)
(-0.000266983 0 0)
(2.03477e-05 0 0)
(0.000331334 0 0)
(-0.000165531 0 0)
(-0.00024593 0 0)
(0.000234014 0 0)
(5.40021e-05 0 0)
(-0.000252337 0 0)
(0.000462049 0 0)
(-9.19844e-05 0 0)
(-0.000893691 0 0)
(0.000757889 0 0)
(0.000674985 0 0)
(-0.00145268 0 0)
(0.00101558 0 0)
(-0.000329775 0 0)
(1.11457e-05 0 0)
(-0.000122057 0 0)
(0.00062672 0 0)
(-0.00134284 0 0)
(0.00167706 0 0)
(-0.00157988 0 0)
(0.001432 0 0)
(-0.000928295 0 0)
(0.000385935 0 0)
(-0.000558487 0 0)
(0.000858938 0 0)
(-0.000808631 0 0)
(0.000597817 0 0)
(9.64355e-05 0 0)
(-0.000944335 0 0)
(0.00116779 0 0)
(-0.000950878 0 0)
(0.000336158 0 0)
(0.000542783 0 0)
(-0.000693243 0 0)
(-6.03609e-05 0 0)
(0.000412954 0 0)
(0.000584816 0 0)
(-0.00155353 0 0)
(0.000950422 0 0)
(7.95778e-05 0 0)
(-0.000374138 0 0)
(0.000429532 0 0)
(-0.000707357 0 0)
(0.00121489 0 0)
(-0.0012276 0 0)
(2.71484e-06 0 0)
(0.00138821 0 0)
(-0.00146774 0 0)
(0.000661891 0 0)
(0.00018716 0 0)
(-0.000472245 0 0)
(-6.9959e-05 0 0)
(0.000148068 0 0)
(0.000529867 0 0)
(-0.000739062 0 0)
(0.000948936 0 0)
(-0.00169394 0 0)
(0.00165014 0 0)
(-0.000863798 0 0)
(0.000365492 0 0)
(0.000309007 0 0)
(-0.000952071 0 0)
(0.000798975 0 0)
(-0.000466135 0 0)
(0.00032083 0 0)
(-0.000233558 0 0)
(0.000539555 0 0)
(-0.000752403 0 0)
(0.000214827 0 0)
(0.000494392 0 0)
(-0.000696023 0 0)
(0.000500176 0 0)
(-7.39719e-05 0 0)
(-0.000395943 0 0)
(0.00018144 0 0)
(0.000579373 0 0)
(-0.000925478 0 0)
(0.00088676 0 0)
(-0.000965995 0 0)
(0.000942213 0 0)
(-0.00066787 0 0)
(0.000302754 0 0)
(0.000267286 0 0)
(-0.000396105 0 0)
(-0.000220865 0 0)
(0.000447833 0 0)
(-9.45701e-05 0 0)
(-9.27733e-05 0 0)
(-8.30947e-05 0 0)
(0.000622798 0 0)
(-0.00103976 0 0)
(0.000773593 0 0)
(0.000333325 0 0)
(-0.00111853 0 0)
(0.000646775 0 0)
)
;

boundaryField
{
    left
    {
        type            noSlip;
    }
    right
    {
        type            noSlip;
    }
    empty
    {
        type            empty;
    }
}


// ************************************************************************* //
