/*--------------------------------*- C++ -*----------------------------------*\
| =========                 |                                                 |
| \\      /  F ield         | OpenFOAM: The Open Source CFD Toolbox           |
|  \\    /   O peration     | Version:  2106                                  |
|   \\  /    A nd           | Website:  www.openfoam.com                      |
|    \\/     M anipulation  |                                                 |
\*---------------------------------------------------------------------------*/
FoamFile
{
    version     2.0;
    format      ascii;
    arch        "LSB;label=32;scalar=64";
    class       volScalarField;
    location    "0.17";
    object      p;
}
// * * * * * * * * * * * * * * * * * * * * * * * * * * * * * * * * * * * * * //

dimensions      [0 2 -2 0 0 0 0];

internalField   nonuniform List<scalar> 
11200
(
150.804965915
147.876364199
146.762513599
146.235182806
145.867853827
145.573076516
145.31143408
145.062897217
144.818380585
144.573314471
144.325001709
144.071687622
143.812140223
143.545423932
143.270771869
142.987510599
142.695014312
142.39267706
142.079900087
141.756095308
141.420638911
141.072881814
140.712165584
140.337822316
139.949166437
139.545496676
139.126096861
138.69023655
138.237171762
137.766145642
137.276389071
136.767121179
136.237549546
135.686870309
135.114268861
134.518921033
133.899992932
133.256641131
132.588013047
131.893247368
131.171474379
130.421816189
129.643386934
128.835292857
127.996632265
127.126495341
126.223963719
125.288109741
124.3179953
123.31267022
122.271170076
121.192513319
120.075697565
118.919694808
117.723445309
116.485849799
115.20575958
113.881964049
112.513174997
111.098006675
109.634950747
108.12234478
106.558331656
104.940810758
103.267372273
101.535211136
99.7410168637
97.8808293214
95.9498441808
93.94214651
91.850347267
89.6650875302
87.3741689516
84.9614069004
82.4047191746
79.6724531513
76.7170218872
73.4658832665
69.765469173
65.0026144048
149.011923964
147.653749897
146.862778668
146.362764797
145.971777309
145.647895823
145.363375972
145.098775166
144.843288824
144.59076849
144.337386842
144.080630303
143.818761843
143.550504989
143.274859287
142.990989899
142.698159442
142.395685138
142.082908594
141.759167955
141.423813013
141.076168193
140.715589705
140.341409369
139.952931194
139.549448191
139.130241339
138.694578357
138.241713969
137.770890344
137.281337386
136.772272671
136.242901876
135.69242478
135.120028724
134.52488959
133.906173226
133.263036156
132.594625811
131.900080945
131.178531982
130.429101243
129.650903175
128.843044454
128.004623961
127.134732632
126.232453068
125.296858825
124.327013316
123.321968268
122.280761624
121.202414796
120.085929079
118.930281033
117.734416593
116.497243552
115.217621979
113.894352134
112.526159322
111.111674748
109.649411533
108.137734829
106.574821244
104.958608146
103.286728182
101.556439941
99.7645279985
97.9071549267
95.97968116
93.9764217589
91.8903077127
89.7123825093
87.4310990946
85.0313220002
82.4926567554
79.7865961557
76.8723419611
73.6920534599
70.1429236092
66.0299599036
148.016733696
147.362533335
146.810177873
146.372560603
146.00093759
145.678836942
145.389738396
145.119505982
144.859044616
144.602565388
144.346183306
144.087216678
143.82375347
143.554366705
143.277935292
142.993530601
142.700343015
142.397633984
142.084705249
141.760879952
141.425495987
141.077913695
140.717389004
140.343268236
139.954859311
139.551452671
139.132326978
138.696748853
138.243972713
137.773240948
137.283784326
136.774822716
136.245565193
135.6952044
135.122922631
134.527898051
133.909297693
133.266278582
132.597988982
131.903568478
131.182148353
130.432851863
129.654794559
128.847084424
128.008821921
127.139099906
126.237003313
125.301608541
124.331982486
123.32718116
122.286247772
121.208210187
120.092077606
118.936836277
117.741443985
116.50482301
115.225851162
113.903350526
112.536073349
111.122684087
109.661736021
108.151642608
106.59064047
104.976759696
103.307763415
101.581059019
99.7936044792
97.9418008862
96.0213338683
94.0269646211
91.9522432911
89.78910684
87.5274602906
85.1543871816
82.6531651899
80.0019309157
77.1727034078
74.1338524716
70.8493790804
67.2962145389
147.466972538
147.103591263
146.703693499
146.334703462
145.99708732
145.688985558
145.403622986
145.132919859
144.870548745
144.611882637
144.353503495
144.092879787
143.828111691
143.557731942
143.280564458
142.995626719
142.702062416
142.39909538
142.085998499
141.762071845
141.426624453
141.078966109
140.718455575
140.34436967
139.955997706
139.552631986
139.133550909
138.698019855
138.245292122
137.774609102
137.285200412
136.776284123
136.247067539
135.696748964
135.124518286
134.529550126
133.9110123
133.268062785
132.599848799
131.90551037
131.184179595
130.434980741
129.657030802
128.849439642
128.011310067
127.14173784
126.239811469
125.304611723
124.335210828
123.330671259
122.290044032
121.21236656
120.096659756
118.941924218
117.74713534
116.511237171
115.233134603
113.911683132
112.545675941
111.133827818
109.674756973
108.166967134
106.60879704
104.99838854
103.333639641
101.612151356
99.831148263
97.987378161
96.076987835
94.0953672465
92.0369592024
89.8950339832
87.6613596057
85.3258933414
82.8765443079
80.2992105773
77.5791403986
74.7066168493
71.6852260951
68.5521263215
147.132924686
146.901129278
146.59971714
146.288740433
145.983901366
145.691878501
145.412903532
145.143778146
144.88081869
144.620734997
144.360766647
144.098676236
143.832671263
143.561302671
143.283373776
142.997867611
142.703891543
142.400636368
142.087346774
141.763300148
141.427791595
141.080124772
140.719603311
140.345516625
139.957167565
139.553839799
139.134806486
138.699330589
138.246664062
137.776047737
137.286711305
136.777873491
136.248742122
135.698513891
135.12637497
134.531501746
133.913059867
133.270207106
132.602094188
131.907861472
131.186643572
130.4375671
129.659751502
128.852309448
128.014347011
127.144963823
126.243253002
125.30830086
124.339186242
123.334980097
122.294743883
121.217527619
120.102367592
118.948283196
117.754272757
116.519307974
115.242326422
113.922223907
112.557843288
111.147963992
109.691284843
108.186393578
106.631753712
105.025670858
103.366251484
101.651353807
99.8785302729
98.0449587664
96.1473595764
94.1818983392
92.1440782011
90.0286343872
87.829458278
85.5396305947
83.1517292085
80.6587425967
78.0564712269
75.3493544219
72.5587507891
69.7353563507
146.929532327
146.753630364
146.512435922
146.245110586
145.967924164
145.691286498
145.419597482
145.153096543
144.89033209
144.62932402
144.368037422
144.104605263
143.837402115
143.565037178
143.286317577
143.000205614
142.705779235
142.402199032
142.088682266
141.764483142
141.428878262
141.081155745
140.72060618
140.34651983
139.958186118
139.554884282
139.135884826
138.700448667
138.247826263
137.777257192
137.28797016
136.779183057
136.250103159
135.699927295
135.127842263
134.53302545
133.914645424
133.271861953
132.603826243
131.909682647
131.188566731
130.439605781
129.661921301
128.854628642
128.016837222
127.147651209
126.246169366
125.311484951
124.342685506
123.338851815
122.299057301
121.222366822
120.107834733
118.954502449
117.76139528
116.527518519
115.251853724
113.933349609
112.570914049
111.163401166
109.709593271
108.208197428
106.657830706
105.056977463
103.403970596
101.696960264
99.9338756158
98.1123829391
96.2298422435
94.2832677353
92.2693034128
90.1842377132
88.0241046128
85.784963063
83.4635283294
81.0584488952
78.5727935036
76.0187205392
73.4231862746
70.8333015393
146.806415696
146.650808197
146.444506791
146.207945305
145.952470994
145.689192643
145.424580771
145.161073675
144.898942084
144.637358136
144.3749878
144.110354596
143.842028797
143.568701901
143.28920176
143.002480793
142.707594054
142.40367569
142.089917679
141.765552118
141.429837195
141.082046482
140.721461136
140.347363606
139.959035017
139.555749642
139.136775135
138.701370223
138.248783845
137.77825472
137.289011159
136.780271027
136.25124185
135.70112118
135.129097008
134.53434764
133.916042085
133.273340921
132.605396365
131.911352073
131.190343302
130.441501157
129.663951613
128.856814143
128.019203113
127.150228004
126.248993957
125.314601989
124.346148981
123.342727322
122.303424455
121.227322587
120.113497261
118.961015742
117.768934775
116.536297316
115.262127761
113.945430562
112.585182265
111.18031969
109.729743325
108.232293811
106.686742228
105.091776192
103.44598396
101.747836346
99.9956690669
98.187668311
96.32186445
94.3961432137
92.4082907905
90.3561014207
88.2375967023
86.0514453391
83.797718097
81.4791755712
79.1033718171
76.6859150937
74.2536961631
71.8460921648
146.732336191
146.58232624
146.395571132
146.179466581
145.939761678
145.68694192
145.42830659
145.167570429
144.906205966
144.644286778
144.381072003
144.115438238
143.846145018
143.571971146
143.291773129
143.004501113
142.709193578
142.404963171
142.090980341
141.766457925
141.430637958
141.082781093
140.722158373
140.348044232
139.959714913
139.556439742
139.137483602
138.70210317
138.24954602
137.77905007
137.289843237
136.781143313
136.252158005
135.702085106
135.130112778
134.53541981
133.917176064
133.27454263
132.606672654
131.912712515
131.191803709
130.44307968
129.665667104
128.858688944
128.02126421
127.152508245
126.2515333
125.317448962
124.349362467
123.346379055
122.3076021
121.232132493
120.11906852
118.967505174
117.776533124
116.545237272
115.272694621
113.957973343
112.600122707
111.198177138
109.75114466
108.258005577
106.717705678
105.129148333
103.491189257
101.802633091
100.062234429
98.2687073925
96.420750844
94.517100229
92.5566240773
90.5384925728
88.4624618675
86.3293467342
84.1417642591
81.9052533808
79.6298589965
77.3321997311
75.0369750821
72.7762167462
146.690059996
146.540612521
146.364197573
146.160460419
145.93092922
145.685222705
145.430864909
145.172228987
144.911524889
144.64943357
144.385639126
144.119283717
143.849275855
143.574466933
143.293740229
143.00604754
142.710416806
142.405945467
142.091788174
141.767143366
141.431240881
141.083331482
140.722678504
140.348551353
139.960218907
139.556950416
139.138007677
138.702645621
138.250110841
137.779640699
137.290462842
136.781795057
136.252845256
135.702811617
135.130882866
134.536238624
133.918049853
133.275479392
132.607682756
131.913808609
131.192997182
130.444385354
129.667104865
128.86028315
128.023044293
127.154509854
126.25379966
125.320032526
124.352326932
123.349801629
122.311576224
121.23677173
120.124510985
118.973918847
117.784122243
116.554249933
115.283432039
113.97079857
112.615482268
111.216613698
109.77332189
108.284733396
106.749972449
105.168162385
103.538430186
101.859915571
100.131788121
98.3532764921
96.5237182133
94.6426407746
92.7098903602
90.7258343192
88.6916707709
86.6098940245
84.4849551609
82.3241569279
80.1387606558
77.9451944212
75.7655247359
73.6259566676
146.670783722
146.520906082
146.34894381
146.15100948
145.926449707
145.684332579
145.432199713
145.174693342
144.914368999
144.652210794
144.388123452
144.121391249
143.851004626
143.575856141
143.294845149
143.00692545
142.711119965
142.406518291
142.092266722
141.76755599
141.431609363
141.083672274
140.723003833
140.348870173
139.960538803
139.557276287
139.138343461
138.702994527
138.25047565
137.780024072
137.290867423
136.782223688
136.253301145
135.703298523
135.131405294
134.536802053
133.918660943
133.276146135
132.608414335
131.914615367
131.193894022
130.4453896
129.668237109
128.861568299
128.024512608
127.156198102
126.255752473
125.322304059
124.354982898
123.352921806
122.315257515
121.241131823
120.129692785
118.980095911
117.791505369
116.563095325
115.294051361
113.983570622
112.630866636
111.235171424
109.795732073
108.3118221
106.782745237
105.207843773
103.586511924
101.918215607
100.202522498
98.439145687
96.6280109762
94.769355348
92.8638727564
90.9129322489
88.9188802218
86.8854723436
84.8184207531
82.7260788022
80.6201827136
78.5165046619
76.4347581133
74.3968955336
146.670786465
146.520922301
146.348970976
146.151045873
145.926494543
145.684384998
145.43225878
145.174758229
144.914439021
144.652285395
144.388202187
144.121473772
143.851090675
143.575945533
143.294937777
143.007021272
142.711218989
142.406620569
142.092372343
141.767665087
141.431722135
141.083789011
140.72312494
140.348996191
139.96067046
139.557414339
139.138488833
138.703148351
138.250639301
137.780199085
137.291055806
136.782427882
136.253524109
135.703543857
135.13167738
134.537106192
133.919003529
133.276534904
132.608858819
131.915127523
131.194487854
130.44608213
129.669049111
128.862525054
128.025644822
127.157543046
126.257355375
125.324219804
124.357278082
123.355677247
122.318571308
121.245123046
120.134506013
118.985906671
117.798526695
116.571585677
115.304324138
113.996006016
112.645926335
111.253412587
109.817835481
108.33861148
106.815219273
105.247213219
103.634243018
101.97608032
100.272657643
98.5241257562
96.7309317914
94.8939296241
93.0145764182
91.0951092777
89.1386750353
87.1499053868
85.1353194993
83.1038263164
81.0672241678
79.0405481707
77.0417236979
75.0898698554
146.690068281
146.540661556
146.364279674
146.160570336
145.931064569
145.685380719
145.431042743
145.172424178
144.911735395
144.649657732
144.385875618
144.119531503
143.84953416
143.574735219
143.294018178
143.006335025
142.710713853
142.406252232
142.092104927
141.767470513
141.431579027
141.083681493
140.723041564
140.348929115
139.960613406
139.557363922
139.13844292
138.703105896
138.25060015
137.780163887
137.29102584
136.782405067
136.253511038
135.703543866
135.131694652
134.537145886
133.919071951
133.276639741
132.609009419
131.915335251
131.19476654
130.446448632
129.669523958
128.863133201
128.02641657
127.158515174
126.258572516
125.325736115
124.359159271
123.358003048
122.321438467
121.248648955
120.138833099
118.991207705
117.8050112
116.579507693
115.313991608
114.007792884
112.660283008
111.270886418
109.839088163
108.3644441
106.846596281
105.285296102
103.680429364
102.03205531
100.340473709
98.6062422933
96.8302567666
95.0138947692
93.1591065221
91.2686417422
89.3464468526
87.39777675
85.4296292937
83.4511654156
81.4740695967
79.5127629813
77.5839846739
75.7052024011
146.732350201
146.582409214
146.395709815
146.179651846
145.939989345
145.68720722
145.428604703
145.167897227
144.906558047
144.644661378
144.381466919
144.115851763
143.846575882
143.572418481
143.29223642
143.004980151
142.709688402
142.405474033
142.091507698
141.767002487
141.431200782
141.083363644
140.722762528
140.348672736
139.960370821
139.55712689
139.138206509
138.702867254
138.250357855
137.77991765
137.290776282
136.782153622
136.253259916
135.703296076
135.131454057
134.536917311
133.918861345
133.276454405
132.608858273
131.915229194
131.194718878
130.446475567
129.669645208
128.863372749
128.026803557
127.159084983
126.259368096
125.326809579
124.360573855
123.359835479
122.323781821
121.251616134
120.142561001
118.995862282
117.810793555
116.586661418
115.322811598
114.018636323
112.673582425
111.287161369
109.858965263
108.388680539
106.876108748
105.321191524
103.724039173
102.084961535
100.404502894
98.6835507474
96.9234187003
95.1259169601
93.2934982245
91.4294265454
89.5380090984
87.6248508407
85.6971745043
83.7641569266
81.8372471367
79.9304053159
78.059783731
76.2423239451
146.806435794
146.650927249
146.444705116
146.208209292
145.952794346
145.689568382
145.425001999
145.161534562
144.89943786
144.637884943
144.375542579
144.110934991
143.842633079
143.569328896
143.289850771
143.003151516
142.708286511
142.4043902
142.090654861
141.766312953
141.430623144
141.082859628
140.722304207
140.348240157
139.95994923
139.556706716
139.137781268
138.702432839
138.249911944
137.779459278
137.290305551
136.781671538
136.252768307
135.702797568
135.130952102
134.536416269
133.918366635
133.275972729
132.608397903
131.914800303
131.194333913
130.446149692
129.669396876
128.86322439
128.026782422
127.159224176
126.25970781
125.327398596
124.361471378
123.361113319
122.325527104
121.253934505
120.145580499
118.999738034
117.815713435
116.592852813
115.330549465
114.028252858
112.685479283
111.301824886
109.87697904
108.410745235
106.903061911
105.354027434
103.763938033
102.133335619
100.463051853
98.7542674962
97.0085937065
95.2281739995
93.4158071698
91.5750934185
89.7106131212
87.8281410669
85.9349081663
84.0399003476
82.1542015886
80.2913909097
78.467494656
76.6999467344
146.929559157
146.753789176
146.51269906
146.245459041
145.968349037
145.691778299
145.420147102
145.153696421
144.890976105
144.630007252
144.368755998
144.10535623
143.838183328
143.565847192
143.287155526
143.001071088
142.706672192
142.403119754
142.089631351
141.765461532
141.429887235
141.082197255
140.721684805
140.347641576
139.959355731
139.556107615
139.137169313
138.701803336
138.249262105
137.778787738
137.28961205
136.780956723
136.252033638
135.702045283
135.130185241
134.535638719
133.91758321
133.275189357
132.607621887
131.914040649
131.193601729
130.445458641
129.668763681
128.862669436
128.026330493
127.158905368
126.259558648
125.327463406
124.361803919
123.361778767
122.326604497
121.255519623
120.147789323
119.002710968
117.819620347
116.597899152
115.336983615
114.036374603
112.695649733
111.31447817
109.892637881
108.430036061
106.92673433
105.382978893
103.799235681
102.176233005
100.515014385
98.8170023658
97.0840712983
95.3186338519
93.5237446403
91.7032213842
89.8617865245
88.0052296306
86.140611289
84.2765243847
82.4234832271
80.5945719893
78.8058305679
77.0759506549
147.132958903
146.901332676
146.60005154
146.289180323
145.984434567
145.692492594
145.413587049
145.144521794
144.881615055
144.621578188
144.361652072
144.099600445
143.833631803
143.562297953
143.284402925
142.998930335
142.704988007
142.401767063
142.088512369
141.764501579
141.429030366
141.08140207
140.720921303
140.346888845
139.958598105
139.5553345
139.136373568
138.700980293
138.248408899
137.777902825
137.288694889
136.780007595
136.251053565
135.701036018
135.1291493
134.53457949
133.916505077
133.274097808
132.606523619
131.912943691
131.192515683
130.44439515
129.667736976
128.86169694
128.025433531
127.158109987
126.258896585
125.326973271
124.36153261
123.361783183
122.326953757
121.256297563
120.149097548
119.004672525
117.822384179
116.601645149
115.341927949
114.042777755
112.703825456
111.324803557
109.905565142
108.446106448
106.946593579
105.407394175
103.829114932
102.212645366
100.559208591
98.8704213603
97.1483624386
95.3956492326
93.6155229006
91.8119409382
89.9896762783
88.1544237856
86.3129326433
84.4731937992
82.6448236995
80.8399729399
79.074156382
77.3672312808
147.467014121
147.103842875
146.704101633
146.335235145
145.997726404
145.689716222
145.40443129
145.133794819
144.87148174
144.612866909
144.354533854
144.0939524
143.829223928
143.558882241
143.281752241
142.996852356
142.703327252
142.400401701
142.087349094
141.763470436
141.428080076
141.080494481
140.720029652
140.345992941
139.957684158
139.554393023
139.135398178
138.699966901
138.247354963
137.776806849
137.287556172
136.77882609
136.249829732
135.699770733
135.127843875
134.533235856
133.915126082
133.272687303
132.605086612
131.911486793
131.191047557
130.442926073
129.666279332
128.860265743
128.024046956
127.156790012
126.257669827
125.325872009
124.360596159
123.361059001
122.326499264
121.256182146
120.149405107
119.005504423
117.823862778
116.60391829
115.34517561
114.047216877
112.709716696
111.332459687
109.915360761
108.458488925
106.962095287
105.426645859
103.852859865
102.241754008
100.594693112
98.913447294
97.2002542739
95.4578859136
93.6897173833
91.8997946244
90.0928926739
88.27456056
86.4511595691
84.6299021464
82.8190818262
81.0290678943
79.2730623635
77.5696914721
148.016787405
147.362847268
146.810669711
146.373189376
146.001683461
145.679680809
145.390664106
145.120501081
144.860099421
144.603672327
144.347336522
144.088411727
143.824987067
143.555636515
143.279239791
142.994869103
142.701716035
142.399044116
142.08615745
141.762380605
141.427045483
141.079481872
140.719010879
140.344952337
139.956610807
139.553279259
139.134238883
138.698758813
138.246096302
137.775496812
137.286194678
136.777413677
136.248367513
135.698260379
135.126287556
134.531635892
133.913483959
133.271005677
132.603369105
131.909737659
131.189271557
130.441130052
129.664472103
128.858458257
128.022252726
127.155025656
126.255955657
125.324232685
124.359061392
123.359665351
122.325291034
121.255213299
120.148741059
119.005224331
117.824062273
116.604712333
115.346701415
114.049639998
112.713236298
111.337314637
109.921836825
108.466927178
106.972901632
105.440301526
103.869932325
102.262907789
100.620699513
98.945191278
97.2387365496
95.5042210328
93.7451177712
91.965535904
90.1702474854
88.364679593
86.5548468438
84.7471329798
82.9481889563
81.1655565334
79.4063265897
77.6791232984
149.012025136
147.6542094
146.863463132
146.363621263
145.972782507
145.649028868
145.364619862
145.100116907
144.844718334
144.592277858
144.338969838
144.08228196
143.820478028
143.552281975
143.276693339
142.992876888
142.70009433
142.397661147
142.084920109
141.761222588
141.425909051
141.078330127
140.717833917
140.34373709
139.955347973
139.55196291
139.132864747
138.697321598
138.244592385
137.773924097
137.284551686
136.775699265
136.246580825
135.696400853
135.124355002
134.529631012
133.911410191
133.268865587
132.601165314
131.907473629
131.186951929
130.438760054
129.662057963
128.856007589
128.019774855
127.152531985
126.253460115
125.321752291
124.356617017
123.357282227
122.322999654
121.253050438
120.146751196
119.003461223
117.822590943
116.603611809
115.346067725
114.049587605
112.71390247
111.338863916
109.924465966
108.470870596
106.978437315
105.447757316
103.879692637
102.275420589
100.636482763
98.9648367102
97.2629101852
95.5336771183
93.7806851661
92.0081018868
90.2207318805
88.4239922492
86.6237791716
84.8259580774
83.0360561188
81.2588298215
79.489084012
77.6971582665
150.80513374
147.877036192
146.763508697
146.236438703
145.869340156
145.574768553
145.313313231
145.064949983
144.820597175
144.575687975
144.327527567
144.074363286
143.814965013
143.548399055
143.273900532
142.990798085
142.698467888
142.396305304
142.083707775
141.760067825
141.424780216
141.077205096
140.716673614
140.342520586
139.954063877
139.550604251
139.13142782
138.695809485
138.243006826
137.772265328
137.282819975
136.77389504
136.24470459
135.694453148
135.122336355
134.527541669
133.909249287
133.266633196
132.598862175
131.905100841
131.184510972
130.436253017
129.659487668
128.853377664
128.017089854
127.149797572
126.250683272
125.318941598
124.353782943
123.354437513
122.320159904
121.250234594
120.143982207
119.000766814
117.82000444
116.601173031
115.3438242
114.04759697
112.712234
111.337600587
109.923706991
108.470734315
106.979064642
105.449315586
103.882379879
102.279469998
100.642167706
98.972481131
97.2729057353
95.5464480596
93.7967134057
92.0279383953
90.2450122639
88.4534545581
86.6593146097
84.8690996557
83.0892449637
81.3245778535
79.5547557271
77.6551040275
57.6058657235
54.0542083555
51.6633099277
49.7069748436
48.036576245
46.5818098611
45.2985135785
44.1567687648
43.1346846261
42.2153210239
41.3851238851
40.6329988919
39.9497165545
39.3275064986
38.7597607689
38.2408097154
37.765747117
37.3302943247
36.9306929244
36.5636202895
36.2261220124
35.9155607011
35.6295715145
35.3660309048
35.1230264684
34.8988326125
34.6918885513
34.5007801184
34.3242246409
34.161057015
34.0102165627
33.8707346168
33.7417236818
33.6223701385
33.5119272698
33.4097090855
33.3150826568
33.2274648925
33.1463308631
33.0712668067
33.0019471842
32.9378498995
32.8785228133
32.8236068008
32.7727743209
32.7257166457
32.6821453642
32.6417928327
32.6044124036
32.5697765933
32.5376720055
32.5078994428
32.4802743187
32.454625538
32.4307995611
32.4086502038
32.388040783
32.3688450109
32.3509465503
32.3342381066
32.3186207407
32.3040023903
32.2902967053
32.2774240787
32.2653124753
32.2538963617
32.2431152329
32.2329121486
32.2232334937
32.2140297506
32.2052571725
32.1968761774
32.188849723
32.1811429458
32.173723283
32.1665618574
32.1596356064
32.1529340039
32.1464201622
32.1400737017
32.1338750639
32.1278082148
32.1218643164
32.116025279
32.1102759666
32.1046077305
32.0990305192
32.0935045724
32.0880289616
32.0825898833
32.0771799768
32.0717893888
32.0664121551
32.0610409815
32.0556690075
32.0502903295
32.0448990934
32.0394894214
32.0340540937
32.0285872412
32.023082331
32.0175329643
32.0119326267
32.0062744697
32.0005505177
31.9947565148
31.9888824969
31.9829157596
31.9768433677
31.9706452264
31.9642820176
31.9577511239
31.9509789586
31.9439942849
31.9369798021
31.9298740838
31.9227290922
31.9155670274
31.9080862187
31.9002648579
31.892060378
31.8831403097
31.8738183798
31.8651475965
31.8563616961
31.8472093866
31.8372423156
31.8267166599
31.8156392163
31.8039985178
31.7915733409
31.7786018853
31.7649884262
31.7506393397
31.7354630741
31.7193558486
31.7021903127
31.6835226338
31.6632662872
31.6409530829
31.6166178345
31.5888577381
31.5563997586
31.5168840753
31.4663403549
31.398846669
31.3040734969
31.1639181166
30.9428877583
30.5767372837
29.9654890862
28.9815553236
27.4978164705
25.4244949188
22.7332379671
19.4737271161
15.7555890108
11.5362422539
6.53915277625
1.5483420285
60.7876000547
56.7347620387
54.0234230003
51.8722833161
50.0720819736
48.5242834106
47.1704888577
45.9732488628
44.9061735682
43.9494416044
43.0875738371
42.3081450611
41.600981537
40.9576277025
40.3709702117
39.8349592097
39.3443987331
38.8947857292
38.4821840928
38.1031314279
37.7545578259
37.4337328876
37.1382134795
36.8658114212
36.6145580387
36.382680835
36.1685769812
35.9707964515
35.7880243015
35.6190678308
35.462841305
35.3183549267
35.1847026451
35.061056848
34.9466595337
34.8408170395
34.7428915826
34.6522957537
34.5684815991
34.4909198596
34.4190578443
34.352535056
34.2909971814
34.2340384818
34.1813100199
34.1324958463
34.0872997673
34.0454472967
34.0066834976
33.9707738301
33.9374970768
33.9066472727
33.8780359537
33.8514896809
33.8268451132
33.8039476693
33.782655121
33.7628361622
33.7443695513
33.72714369
33.7110556874
33.6960100454
33.6819199556
33.6687010078
33.6562759535
33.6445761028
33.6335387053
33.6231048463
33.6132193212
33.6038301237
33.5948913934
33.5863616146
33.5782030797
33.5703812531
33.5628602787
33.5556084667
33.5485979269
33.5417961914
33.5351950098
33.5287695201
33.5224981542
33.5163635592
33.5103488385
33.5044444818
33.4986328022
33.4929078371
33.4872581836
33.4816542614
33.4760998853
33.4705894504
33.4651109193
33.4596585895
33.4542213453
33.4487976855
33.4433766264
33.4379528709
33.4325241135
33.4270796316
33.4216146873
33.4161238526
33.4106042497
33.4050418156
33.3994358939
33.3937805497
33.3880674733
33.3822874509
33.3764415585
33.3705188136
33.3645093441
33.3583977308
33.3521754648
33.3458525988
33.3394252219
33.3328866037
33.3263345095
33.3193667502
33.3119823894
33.3044809365
33.2968384111
33.2889904955
33.2808790537
33.2724033249
33.2638329279
33.255430967
33.2465715365
33.2366828761
33.2267581076
33.2165341954
33.2059406981
33.1949616899
33.1830236494
33.1707927699
33.1580620455
33.1447530737
33.1307919306
33.1161143092
33.100722043
33.0838636058
33.0659078717
33.0463624755
33.0249650722
33.0006939573
32.9721313629
32.9367054574
32.8899478408
32.8248203756
32.7288987777
32.5803213328
32.3378904981
31.9302061984
31.2508316688
30.1696644005
28.5636599339
26.3536124161
23.5231677506
20.1262981141
16.2705670044
11.9282910662
6.83619724931
1.68452079166
62.9954157592
59.061871075
56.1954339809
53.9128230643
52.012687476
50.3884123481
48.9747726833
47.7295382649
46.6230753898
45.6333425369
44.7433120969
43.9394597946
43.2108179982
42.5483500028
41.9445102204
41.3929240172
40.8881471628
40.4254844151
40.0008491322
39.6106588415
39.2517460919
38.9213022664
38.6168184196
38.3360519022
38.0769869771
37.8378111897
37.616886473
37.4127326389
37.2240074201
37.0494935848
36.8880816604
36.738760481
36.6006035375
36.4727626798
36.354459112
36.2449764748
36.1436533549
36.0498793443
35.9630930707
35.8827863469
35.8084708026
35.7396349595
35.6758816923
35.6168775066
35.5622708654
35.5117328416
35.4649545866
35.4216498605
35.3815517101
35.3444175869
35.3100180595
35.278139305
35.2485826071
35.2211644931
35.1957162083
35.1720821635
35.1501157837
35.1296811535
35.1106528456
35.0929150927
35.0763609499
35.0608900623
35.0464067078
35.0328275475
35.0200756903
35.0080794503
34.9967728593
34.9860944335
34.9759852831
34.9663912973
34.9572667272
34.9485679875
34.9402495719
34.9322763955
34.9246172439
34.9172400888
34.9101175143
34.9032254334
34.89654366
34.8900463604
34.8837117589
34.8775219641
34.8714595306
34.8655136942
34.859666146
34.8539091597
34.8482276034
34.8426065678
34.8370384204
34.8315171576
34.8260295904
34.8205709938
34.8151292559
34.8097020299
34.8042801314
34.7988564853
34.7934295021
34.7879893636
34.7825296188
34.7770449551
34.7715336753
34.7659817366
34.7603873179
34.7547446309
34.7490493114
34.7432894756
34.737463755
34.7315631863
34.7255792264
34.7195011902
34.7133247563
34.7070602896
34.7008068311
34.6945508501
34.6876912446
34.6807816212
34.6736220206
34.666284142
34.6587752384
34.651072819
34.6431350652
34.6349367812
34.6266063677
34.6182102793
34.6094383775
34.6000714118
34.5906174934
34.580835516
34.5707400807
34.560667004
34.5490031778
34.5375277077
34.5256857557
34.5134101814
34.5006723004
34.4874316893
34.474019637
34.4588311336
34.4431530846
34.4263560204
34.4080315885
34.3873124567
34.3627069406
34.3314171312
34.2884449355
34.2256117023
34.1282751874
33.9708179076
33.7064627387
33.2571083812
32.5106604888
31.335405766
29.6127724843
27.2733920049
24.3111832372
20.7826025806
16.7919000401
12.3256879909
7.13483330469
1.81920603801
64.7998855556
61.0753268397
58.1721608534
55.8183974854
53.8502067578
52.1680994434
50.7067165901
49.4219650552
48.2823917663
47.2644998058
46.3501544823
45.5250049741
44.7774680394
44.0980478382
43.4788534187