/*--------------------------------*- C++ -*----------------------------------*\
| =========                 |                                                 |
| \\      /  F ield         | OpenFOAM: The Open Source CFD Toolbox           |
|  \\    /   O peration     | Version:  2106                                  |
|   \\  /    A nd           | Website:  www.openfoam.com                      |
|    \\/     M anipulation  |                                                 |
\*---------------------------------------------------------------------------*/
FoamFile
{
    version     2.0;
    format      ascii;
    arch        "LSB;label=32;scalar=64";
    class       volVectorField;
    location    "0.17";
    object      U;
}
// * * * * * * * * * * * * * * * * * * * * * * * * * * * * * * * * * * * * * //

dimensions      [0 1 -1 0 0 0 0];

internalField   nonuniform List<vector> 
11200
(
(0.66246240392 0.150569443262 0)
(0.558948673425 0.10324338934 0)
(0.383850737759 0.0513512252952 0)
(0.283747596737 0.0248708562496 0)
(0.232075273046 0.0124170460859 0)
(0.201908591641 0.00662281758212 0)
(0.183197939998 0.00380291506025 0)
(0.171276497564 0.00231587059237 0)
(0.163510316814 0.00146450696784 0)
(0.15838878121 0.00094489272095 0)
(0.15500664316 0.000615177100241 0)
(0.15278668832 0.000402233925336 0)
(0.151346537928 0.000264232271304 0)
(0.150428300303 0.000175250158182 0)
(0.149856695196 0.00011836064244 0)
(0.149512492856 8.21598942918e-05 0)
(0.149314931153 5.88656930567e-05 0)
(0.149209567819 4.33152659642e-05 0)
(0.149159706471 3.29339060385e-05 0)
(0.149142464125 2.81858266821e-05 0)
(0.149144616889 2.76839137849e-05 0)
(0.149156888586 2.988991519e-05 0)
(0.149172505511 3.30503836421e-05 0)
(0.149188047978 3.59659424016e-05 0)
(0.149202251663 3.86014238646e-05 0)
(0.149214516819 4.10405444424e-05 0)
(0.149224675966 4.3317976595e-05 0)
(0.149232836053 4.54648267049e-05 0)
(0.149239233648 4.75202261765e-05 0)
(0.149244150488 4.9530939673e-05 0)
(0.149247871324 5.15584339515e-05 0)
(0.149250663583 5.36934164693e-05 0)
(0.149252724017 5.60206151446e-05 0)
(0.149254222553 5.84017036107e-05 0)
(0.14925529273 6.07630944347e-05 0)
(0.149256021094 6.30850308743e-05 0)
(0.149256502955 6.5377562699e-05 0)
(0.149256821631 6.76529654683e-05 0)
(0.149257031483 6.99228832041e-05 0)
(0.149257161805 7.21936531806e-05 0)
(0.14925723361 7.4466313073e-05 0)
(0.149257264446 7.67419305445e-05 0)
(0.149257266421 7.90203151686e-05 0)
(0.149257247931 8.13003236465e-05 0)
(0.149257214671 8.35801903797e-05 0)
(0.149257170685 8.58575274535e-05 0)
(0.149257119618 8.81295378999e-05 0)
(0.149257065427 9.03932378811e-05 0)
(0.14925701248 9.26456494983e-05 0)
(0.149256965975 9.48836627558e-05 0)
(0.149256932899 9.71041414779e-05 0)
(0.149256922797 9.93040899608e-05 0)
(0.149256948741 0.000101480493512 0)
(0.149257028881 0.000103630099477 0)
(0.14925718865 0.000105748969964 0)
(0.149257464013 0.000107831853346 0)
(0.149257905291 0.000109872035502 0)
(0.14925858471 0.000111860210865 0)
(0.14925960898 0.000113783199137 0)
(0.149261134447 0.000115616885066 0)
(0.1492634006 0.000117307926602 0)
(0.149266813628 0.000118768468926 0)
(0.14927185513 0.000120031393533 0)
(0.14927916811 0.000121283223805 0)
(0.149289780675 0.000122978034603 0)
(0.149305214557 0.000125339460454 0)
(0.149327855343 0.000128123847432 0)
(0.149361409822 0.000131095976577 0)
(0.14941148939 0.000134035547475 0)
(0.149486351872 0.000136828622512 0)
(0.149597975246 0.000140765824421 0)
(0.149769298627 0.000151707400468 0)
(0.150038215354 0.000172524216379 0)
(0.150468042834 0.000202897325888 0)
(0.151194907009 0.000232985372905 0)
(0.152497219896 0.000192163204997 0)
(0.155032613558 -0.000217799659273 0)
(0.162399688877 -0.00211952567839 0)
(0.187794011827 -0.0108393125309 0)
(0.204731165413 -0.0499493727078 0)
(0.965408254589 0.28921470783 0)
(0.961962859235 0.252656041437 0)
(0.823574390236 0.15902144322 0)
(0.698139365757 0.0959957327275 0)
(0.610225459021 0.0582481155193 0)
(0.548971484929 0.0362148544331 0)
(0.50658887952 0.0231612862239 0)
(0.477567256274 0.0151375162446 0)
(0.457745475086 0.0100177559166 0)
(0.444228439661 0.0066581417874 0)
(0.435053272872 0.00441555674052 0)
(0.428873087649 0.00290686616387 0)
(0.424754166444 0.00189105856985 0)
(0.422046611594 0.00121004531602 0)
(0.420297769793 0.000757163204603 0)
(0.419193156404 0.000459255429012 0)
(0.418515547437 0.000265854048204 0)
(0.418116397309 0.000142398494032 0)
(0.417895791527 6.61079818599e-05 0)
(0.417786739122 2.3090587967e-05 0)
(0.417745324256 1.40537737048e-06 0)
(0.417742047685 -1.01664316406e-05 0)
(0.417756647264 -1.37188966604e-05 0)
(0.417778609502 -1.32735792547e-05 0)
(0.417802909382 -1.08427160696e-05 0)
(0.417826287832 -7.50099274793e-06 0)
(0.417847051747 -3.88585914087e-06 0)
(0.417864602442 -3.67351048134e-07 0)
(0.417878943443 2.85316730363e-06 0)
(0.417890389344 5.67210085045e-06 0)
(0.417899411326 8.0258985961e-06 0)
(0.417906504887 9.8308177924e-06 0)
(0.417911871525 1.10017045965e-05 0)
(0.417915742572 1.18543795776e-05 0)
(0.417918497004 1.26730595322e-05 0)
(0.417920409805 1.34287981923e-05 0)
(0.417921720054 1.41032018422e-05 0)
(0.417922618458 1.47182848682e-05 0)
(0.417923232829 1.53034472869e-05 0)
(0.417923634626 1.58730785507e-05 0)
(0.417923876162 1.6427115999e-05 0)
(0.417924001013 1.69706966747e-05 0)
(0.417924039625 1.75076605818e-05 0)
(0.417924014092 1.80412222327e-05 0)
(0.417923940312 1.857451533e-05 0)
(0.417923830123 1.91099305647e-05 0)
(0.417923693908 1.96495302321e-05 0)
(0.417923542235 2.01955065704e-05 0)
(0.417923386312 2.07503072603e-05 0)
(0.417923239308 2.13149951661e-05 0)
(0.41792311893 2.18895263089e-05 0)
(0.417923049301 2.24739483847e-05 0)
(0.417923063266 2.30682555477e-05 0)
(0.417923206243 2.36721371984e-05 0)
(0.417923541867 2.42847468201e-05 0)
(0.41792416096 2.49047246016e-05 0)
(0.417925192473 2.55305567998e-05 0)
(0.417926823058 2.61531765973e-05 0)
(0.41792932482 2.67531593193e-05 0)
(0.417933084907 2.72999492312e-05 0)
(0.417938688465 2.77496836086e-05 0)
(0.417947222727 2.80360805574e-05 0)
(0.417960194919 2.83105166859e-05 0)
(0.417979735148 2.79025808633e-05 0)
(0.418008641114 2.53868846835e-05 0)
(0.41805052331 1.96096130428e-05 0)
(0.418111537037 9.76707308216e-06 0)
(0.418201832776 -5.67025030646e-06 0)
(0.418337078219 -2.92367589272e-05 0)
(0.418542282277 -6.46340808256e-05 0)
(0.418859540853 -0.000116081383419 0)
(0.419358766805 -0.000188589483238 0)
(0.420153979741 -0.000309036950746 0)
(0.421449864489 -0.000535233665834 0)
(0.423639998446 -0.00100458639058 0)
(0.427447040466 -0.00210052841823 0)
(0.43430157446 -0.0048800861904 0)
(0.448397542971 -0.0123162515511 0)
(0.474933483107 -0.0344206751215 0)
(0.478779994228 -0.0993533684027 0)
(1.02222096562 0.238416187646 0)
(1.08213752983 0.29592665329 0)
(1.03447722605 0.23950306706 0)
(0.954615408259 0.174290165014 0)
(0.879992053921 0.121345468859 0)
(0.818614432934 0.0830993844873 0)
(0.771410846747 0.0567316674193 0)
(0.73663438546 0.0387409687658 0)
(0.711624425834 0.0264327871671 0)
(0.693916612381 0.0179731047668 0)
(0.681541400869 0.0121424479061 0)
(0.67300010645 0.00812490803784 0)
(0.667180639208 0.00536632076592 0)
(0.663271666927 0.00348444437143 0)
(0.660688493358 0.00221256101406 0)
(0.659014166754 0.00136338113401 0)
(0.65795448374 0.000805242789464 0)
(0.657304189053 0.000445915079629 0)
(0.656921769319 0.000221066127431 0)
(0.65671020331 8.55773828687e-05 0)
(0.656603339179 8.35228726968e-06 0)
(0.65656179165 -3.37283489637e-05 0)
(0.656557893986 -5.68665388406e-05 0)
(0.656571373696 -6.68888914894e-05 0)
(0.656592909466 -6.84998282683e-05 0)
(0.656616738167 -6.5582318618e-05 0)
(0.656639552802 -6.05756067738e-05 0)
(0.656659746683 -5.48903221387e-05 0)
(0.656676734578 -4.93109051166e-05 0)
(0.656690494336 -4.4244178215e-05 0)
(0.656701272019 -3.98844202602e-05 0)
(0.656709448806 -3.63493751964e-05 0)
(0.656715718348 -3.37468497216e-05 0)
(0.656720771281 -3.19098406527e-05 0)
(0.656724658042 -3.08596359976e-05 0)
(0.656727394113 -3.0349987405e-05 0)
(0.656729281896 -3.02857264151e-05 0)
(0.656730600513 -3.05913123963e-05 0)
(0.656731520575 -3.1115483222e-05 0)
(0.656732131106 -3.17730156557e-05 0)
(0.65673250535 -3.25354680789e-05 0)
(0.656732709008 -3.33676324604e-05 0)
(0.656732786862 -3.42446551567e-05 0)
(0.656732772482 -3.51476877883e-05 0)
(0.656732690375 -3.60611638811e-05 0)
(0.656732558868 -3.69741621622e-05 0)
(0.65673239413 -3.78791693218e-05 0)
(0.656732212294 -3.87707172616e-05 0)
(0.656732029029 -3.96433264598e-05 0)
(0.65673186174 -4.04926679005e-05 0)
(0.656731735047 -4.13144856368e-05 0)
(0.656731683534 -4.21046895975e-05 0)
(0.656731754548 -4.28612263503e-05 0)
(0.65673201407 -4.35857868169e-05 0)
(0.656732555703 -4.42884679301e-05 0)
(0.656733514053 -4.49966869208e-05 0)
(0.656735075902 -4.57623095968e-05 0)
(0.656737507784 -4.66774367395e-05 0)
(0.656741208418 -4.78753970299e-05 0)
(0.656746774299 -4.95678306472e-05 0)
(0.65675510715 -5.22330053703e-05 0)
(0.656767839901 -5.69433870131e-05 0)
(0.656786389358 -6.44645150259e-05 0)
(0.656812185012 -7.5721112954e-05 0)
(0.656848940301 -9.236196862e-05 0)
(0.656903377091 -0.000116832272472 0)
(0.656984958786 -0.00015234086149 0)
(0.657107521913 -0.000204197159739 0)
(0.657292964932 -0.000280975057684 0)
(0.657576845541 -0.000396647076717 0)
(0.658017592047 -0.000575731726913 0)
(0.658704910752 -0.000865784785442 0)
(0.659786775546 -0.0013573964564 0)
(0.661522398321 -0.00222468337786 0)
(0.664356985204 -0.00383226187322 0)
(0.668991945672 -0.00698362188357 0)
(0.676463441543 -0.0134287268792 0)
(0.688797170943 -0.027006405869 0)
(0.705581700127 -0.0566855381525 0)
(0.701077854397 -0.113935160893 0)
(1.0225147547 0.170807152717 0)
(1.10138975712 0.276496478918 0)
(1.11752426031 0.266664799515 0)
(1.09214660385 0.219901699153 0)
(1.05187815309 0.1681688477 0)
(1.01020821963 0.123567396661 0)
(0.973494683529 0.0888375214745 0)
(0.943864545645 0.0630063714409 0)
(0.921142785692 0.044223203967 0)
(0.904284055043 0.0307423926108 0)
(0.892074847301 0.0211562939832 0)
(0.883404485446 0.0143954683953 0)
(0.87735264196 0.00966794807333 0)
(0.873197675869 0.00639383701784 0)
(0.870392896228 0.00415116447137 0)
(0.868534004865 0.00263449011247 0)
(0.867327605711 0.00162401575574 0)
(0.86656420071 0.000962673070485 0)
(0.866096442046 0.000539117654019 0)
(0.865822199341 0.000275146399467 0)
(0.865671355881 0.000117058208854 0)
(0.865595106527 2.8778888449e-05 0)
(0.86556405213 -1.93423544085e-05 0)
(0.865561249897 -4.12835866986e-05 0)
(0.865572601235 -4.76928038177e-05 0)
(0.865589617549 -4.55575136535e-05 0)
(0.865607940257 -3.91934584853e-05 0)
(0.865625295398 -3.11880087475e-05 0)
(0.865640598846 -2.30121911951e-05 0)
(0.865653483111 -1.54335554731e-05 0)
(0.865663979432 -8.78087546484e-06 0)
(0.865672291273 -3.10654300879e-06 0)
(0.865678672119 1.67112854546e-06 0)
(0.865683331233 5.40698617755e-06 0)
(0.865686681037 7.98627030312e-06 0)
(0.865689111428 9.75169847171e-06 0)
(0.865690770456 1.11028593237e-05 0)
(0.865691949435 1.2248661983e-05 0)
(0.865692835252 1.32169508813e-05 0)
(0.865693444127 1.41070745989e-05 0)
(0.865693821557 1.49071264838e-05 0)
(0.865694033017 1.56395120683e-05 0)
(0.865694116482 1.63201942312e-05 0)
(0.865694102776 1.69646766339e-05 0)
(0.865694014208 1.75877969404e-05 0)
(0.86569386653 1.81999112466e-05 0)
(0.865693674602 1.88091425574e-05 0)
(0.865693455755 1.94239286424e-05 0)
(0.865693228957 2.00563821947e-05 0)
(0.865693016522 2.07052205573e-05 0)
(0.865692848938 2.13588547072e-05 0)
(0.865692766081 2.20065120719e-05 0)
(0.865692820542 2.26328804793e-05 0)
(0.865693082388 2.3213252609e-05 0)
(0.865693643666 2.37095962646e-05 0)
(0.865694632428 2.40740243144e-05 0)
(0.865696227537 2.42691801303e-05 0)
(0.865698699968 2.42052098213e-05 0)
(0.865702449095 2.3714269724e-05 0)
(0.86570791819 2.24165879424e-05 0)
(0.865715486085 1.97013453063e-05 0)
(0.865726768678 1.49505224027e-05 0)
(0.865744386537 6.34117716824e-06 0)
(0.865771301102 -7.85277287691e-06 0)
(0.865811428134 -2.9631646262e-05 0)
(0.865870660397 -6.29090880824e-05 0)
(0.865958337381 -0.000114599824469 0)
(0.866089003162 -0.000195534302603 0)
(0.866285287553 -0.000323085150799 0)
(0.866582171695 -0.000525920001145 0)
(0.867033569509 -0.000853315014968 0)
(0.867725086601 -0.00139276117817 0)
(0.868794021307 -0.00229403397341 0)
(0.870455313793 -0.00383361281588 0)
(0.873030780624 -0.00653939368095 0)
(0.876924266718 -0.0114281435969 0)
(0.882466045565 -0.0203841997098 0)
(0.889849899874 -0.0367097205834 0)
(0.896640540814 -0.0659989884868 0)
(0.886950050817 -0.111037898857 0)
(1.01287875083 0.118961023621 0)
(1.08820670659 0.231806937416 0)
(1.13741366825 0.253106765218 0)
(1.15409086259 0.22899275418 0)
(1.14994210194 0.188368359554 0)
(1.13538464528 0.146579844725 0)
(1.11758893594 0.110150966402 0)
(1.10059498709 0.0808162227389 0)
(1.08612455332 0.0582265769416 0)
(1.07459090358 0.0413189854686 0)
(1.06579144273 0.0289160206557 0)
(1.05928796193 0.0199601003931 0)
(1.05459973377 0.0135815604867 0)
(1.05129073274 0.00909744342696 0)
(1.04899981222 0.00598615392258 0)
(1.04744336658 0.00385696579287 0)
(1.04640649097 0.00242159628311 0)
(1.04573057385 0.00147014688619 0)
(1.045301017 0.000851696433821 0)
(1.04503651886 0.00045900781794 0)
(1.04488015592 0.000216744533664 0)
(1.04479254035 7.30011543265e-05 0)
(1.04474867695 -5.52515661091e-06 0)
(1.04473178068 -4.40355110524e-05 0)
(1.04472953513 -5.94191129169e-05 0)
(1.04473502621 -6.17593455986e-05 0)
(1.04474398347 -5.72922348654e-05 0)
(1.04475387909 -4.98563926091e-05 0)
(1.04476333339 -4.17025810842e-05 0)
(1.04477167612 -3.40513607207e-05 0)
(1.04477865678 -2.74885733039e-05 0)
(1.04478426238 -2.22174016858e-05 0)
(1.0447886384 -1.81930411769e-05 0)
(1.04479199536 -1.5203939385e-05 0)
(1.04479458457 -1.28756174235e-05 0)
(1.04479669361 -1.1081567989e-05 0)
(1.04479844416 -9.60228071671e-06 0)
(1.04479978354 -8.31349662992e-06 0)
(1.04480077844 -7.28411966469e-06 0)
(1.04480148005 -6.60114552192e-06 0)
(1.0448019045 -6.21051569798e-06 0)
(1.0448021416 -5.99114589806e-06 0)
(1.04480223577 -5.89078734847e-06 0)
(1.04480222475 -5.8634157742e-06 0)
(1.04480213384 -5.86715559759e-06 0)
(1.04480198074 -5.88136206559e-06 0)
(1.04480178461 -5.89668945646e-06 0)
(1.04480156962 -5.91148479124e-06 0)
(1.04480134878 -5.93536645099e-06 0)
(1.04480112673 -5.96493157131e-06 0)
(1.04480092856 -5.98711835894e-06 0)
(1.0448007967 -6.00190864346e-06 0)
(1.04480078271 -6.01559559112e-06 0)
(1.04480095619 -6.04156710514e-06 0)
(1.04480142328 -6.10994909121e-06 0)
(1.04480236487 -6.30157519949e-06 0)
(1.04480399897 -6.84394858715e-06 0)
(1.0448065833 -8.06997123594e-06 0)
(1.04481042289 -1.04354257103e-05 0)
(1.04481596386 -1.42045917175e-05 0)
(1.0448242251 -1.91715671681e-05 0)
(1.04483638321 -2.53232451843e-05 0)
(1.04485364996 -3.4969379273e-05 0)
(1.04487831754 -5.10884529834e-05 0)
(1.04491386281 -7.79550208864e-05 0)
(1.04496542719 -0.000121860925595 0)
(1.04504061938 -0.000192636959162 0)
(1.04515080291 -0.00030594891049 0)
(1.04531316429 -0.000487119229599 0)
(1.04555366619 -0.000777447831054 0)
(1.04591120952 -0.00124472919578 0)
(1.04644403097 -0.00200138762828 0)
(1.04723690206 -0.00323939631254 0)
(1.04840392821 -0.00529211981314 0)
(1.05007432666 -0.0087411067521 0)
(1.0523076196 -0.0145888320974 0)
(1.05486340391 -0.0244586180661 0)
(1.05695477405 -0.0406900703447 0)
(1.05587186228 -0.066173311768 0)
(1.042286962 -0.100488157019 0)
(1.00447483427 0.0814039977253 0)
(1.06917237133 0.181288539585 0)
(1.13080568292 0.216950419476 0)
(1.17374999812 0.210789156196 0)
(1.19865264437 0.18369007743 0)
(1.21019987085 0.149751683792 0)
(1.21350254655 0.116779144441 0)
(1.21251722755 0.0882206780649 0)
(1.20973096785 0.0650481509584 0)
(1.20651117871 0.0470209088179 0)
(1.20351911314 0.0334068084043 0)
(1.20101142953 0.0233557324063 0)
(1.19903442644 0.0160720136837 0)
(1.19753875223 0.0108795134349 0)
(1.19644128488 0.00723418744127 0)
(1.19565555337 0.00471351719928 0)
(1.19510485492 0.00299762669227 0)
(1.19472643943 0.00184915676236 0)
(1.19447145607 0.00109495391288 0)
(1.19430314351 0.000610601606611 0)
(1.19419450202 0.00030797266062 0)
(1.19412621533 0.000125749574062 0)
(1.19408516345 2.21980088266e-05 0)
(1.19406190285 -3.24840859908e-05 0)
(1.19404960139 -5.73098500929e-05 0)
(1.19404410204 -6.46432766552e-05 0)
(1.1940426044 -6.24294440044e-05 0)
(1.19404329004 -5.55829348516e-05 0)
(1.19404504317 -4.70139423718e-05 0)
(1.19404720536 -3.83358179091e-05 0)
(1.19404940402 -3.03495823669e-05 0)
(1.19405144683 -2.33603481241e-05 0)
(1.19405326425 -1.73915407092e-05 0)
(1.19405485067 -1.23688063543e-05 0)
(1.19405622223 -8.1850326222e-06 0)
(1.19405739781 -4.7827251251e-06 0)
(1.19405835362 -2.15945430715e-06 0)
(1.19405903915 -2.55244705576e-07 0)
(1.19405940703 1.08216518744e-06 0)
(1.19405952304 1.94733299951e-06 0)
(1.19405957427 2.63250380245e-06 0)
(1.19405960465 3.24402411601e-06 0)
(1.19405958219 3.78238074521e-06 0)
(1.19405952279 4.2583826288e-06 0)
(1.19405942519 4.68090011078e-06 0)
(1.19405927818 5.06553518021e-06 0)
(1.19405908158 5.42366122169e-06 0)
(1.19405883859 5.7558969957e-06 0)
(1.19405857101 6.04803673259e-06 0)
(1.19405832206 6.3037718821e-06 0)
(1.19405812378 6.54343614866e-06 0)
(1.19405800625 6.75753860189e-06 0)
(1.19405801954 6.92030960612e-06 0)
(1.19405822693 6.99225990428e-06 0)
(1.19405868476 6.91612527732e-06 0)
(1.19405938946 6.60951491685e-06 0)
(1.19406035328 5.9254814928e-06 0)
(1.19406171272 4.54514686184e-06 0)
(1.19406399296 1.92522521448e-06 0)
(1.19406828585 -2.14922716056e-06 0)
(1.19407536743 -8.44054403094e-06 0)
(1.19408507843 -1.83700209402e-05 0)
(1.19409806436 -3.39440057131e-05 0)
(1.1941162924 -5.80658284431e-05 0)
(1.19414189453 -9.53310725273e-05 0)
(1.19417766831 -0.000153082721545 0)
(1.19422758375 -0.000243029532744 0)
(1.19429725078 -0.000383748363652 0)
(1.19439452652 -0.00060488641432 0)
(1.19453017857 -0.000954113674455 0)
(1.19471831872 -0.00150852359062 0)
(1.19497581013 -0.00239328476419 0)
(1.19531759264 -0.00381329483906 0)
(1.19574119949 -0.00610441114429 0)
(1.19618666874 -0.00981055594227 0)
(1.19643444175 -0.0157844057058 0)
(1.19589676541 -0.0252521451855 0)
(1.19341477518 -0.0396948010699 0)
(1.18663990134 -0.0603943693398 0)
(1.17001803431 -0.0860926990678 0)
(0.998962325174 0.0544316254716 0)
(1.05310956622 0.133401608386 0)
(1.11628267777 0.170777559094 0)
(1.17301271313 0.17514387279 0)
(1.21791245424 0.159583606939 0)
(1.25049856895 0.134951020571 0)
(1.27288489963 0.108411657201 0)
(1.28776720757 0.0838849721334 0)
(1.29745266423 0.0630565726557 0)
(1.30366073265 0.0462999217422 0)
(1.30759232374 0.0333205152885 0)
(1.31005367964 0.0235495245992 0)
(1.31157360172 0.0163599083571 0)
(1.31249490264 0.0111713155549 0)
(1.31303859392 0.00749150662591 0)
(1.31334668385 0.00492448492331 0)
(1.31351009607 0.00316295280663 0)
(1.31358672421 0.00197474737424 0)
(1.31361309858 0.00118818962674 0)
(1.31361194683 0.000678618481675 0)
(1.31359710654 0.000356993309982 0)
(1.31357678214 0.000160733815638 0)
(1.3135557837 4.64427850625e-05 0)
(1.31353648409 -1.59029406662e-05 0)
(1.3135198215 -4.60981949046e-05 0)
(1.31350612701 -5.71157832672e-05 0)
(1.31349521648 -5.73785662614e-05 0)
(1.31348675276 -5.21483185131e-05 0)
(1.3134803475 -4.45941002789e-05 0)
(1.31347561546 -3.65399388647e-05 0)
(1.3134722056 -2.89583851796e-05 0)
(1.31346981505 -2.23023630863e-05 0)
(1.31346818499 -1.67225945755e-05 0)
(1.31346708779 -1.22253354856e-05 0)
(1.31346635733 -8.74441007248e-06 0)
(1.31346589556 -6.17817933011e-06 0)
(1.31346560312 -4.3906365693e-06 0)
(1.31346538929 -3.18048949442e-06 0)
(1.31346524283 -2.32092361411e-06 0)
(1.31346525495 -1.60251702042e-06 0)
(1.31346539897 -1.01344998311e-06 0)
(1.31346549314 -5.86150192597e-07 0)
(1.31346548327 -2.15815531979e-07 0)
(1.31346539776 1.35080721489e-07 0)
(1.31346525588 4.636611075e-07 0)
(1.31346507164 7.77704759358e-07 0)
(1.31346484884 1.08994461284e-06 0)
(1.3134645893 1.41403020309e-06 0)
(1.31346430817 1.76557505506e-06 0)
(1.31346403794 2.13134337415e-06 0)
(1.31346379345 2.4656462568e-06 0)
(1.31346358211 2.73518718168e-06 0)
(1.31346343436 2.89803278693e-06 0)
(1.31346339897 2.89177170838e-06 0)
(1.31346355406 2.62816552306e-06 0)
(1.31346401823 2.00100670869e-06 0)
(1.31346483581 9.3341175201e-07 0)
(1.31346596404 -7.2929731909e-07 0)
(1.31346782474 -3.12929973776e-06 0)
(1.31347073034 -6.93776138136e-06 0)
(1.31347479268 -1.35032699562e-05 0)
(1.31348025792 -2.44539254473e-05 0)
(1.31348737463 -4.13742839886e-05 0)
(1.31349660415 -6.74129226367e-05 0)
(1.3135082416 -0.000107607150509 0)
(1.31352232667 -0.000169730734207 0)
(1.31353843761 -0.000265929082707 0)
(1.31355519744 -0.000415231762946 0)
(1.31356930054 -0.000647634119854 0)
(1.31357368938 -0.00101069403808 0)
(1.31355420853 -0.00158001415899 0)
(1.3134831632 -0.00247540471127 0)
(1.31330580126 -0.00388573476489 0)
(1.31291383777 -0.00610613957385 0)
(1.31209604137 -0.00958573258329 0)
(1.31044467035 -0.0149737806923 0)
(1.30720161403 -0.0231111655438 0)
(1.30114783489 -0.0348578801067 0)
(1.29039683682 -0.0506793081986 0)
(1.27144023741 -0.0693830740296 0)
(0.995736073688 0.0346338598427 0)
(1.04179514232 0.0905689217649 0)
(1.1022283848 0.121549565776 0)
(1.16491411349 0.129605834828 0)
(1.22202565971 0.122009269051 0)
(1.26951891604 0.106019938863 0)
(1.30680223293 0.0870975564189 0)
(1.33499534816 0.0686366815195 0)
(1.35574476887 0.0523698395442 0)
(1.37069616162 0.0389256185514 0)
(1.38128274888 0.0282980740527 0)
(1.38866266989 0.0201712778369 0)
(1.39373032504 0.0141175109786 0)
(1.39715659768 0.00970533633206 0)
(1.39943433758 0.00655059510128 0)
(1.40091965756 0.00433445371285 0)
(1.40186620166 0.00280414282567 0)
(1.4024522196 0.00176573943157 0)
(1.40280131403 0.0010741893247 0)
(1.40299800688 0.000623226464795 0)
(1.40309922302 0.000336397193205 0)
(1.40314266979 0.000159606961063 0)
(1.40315292183 5.51433985078e-05 0)
(1.40314542386 -3.02334758031e-06 0)
(1.40312965371 -3.21547627293e-05 0)
(1.40311123795 -4.39292294469e-05 0)
(1.40309318501 -4.58064210056e-05 0)
(1.40307701937 -4.24715433646e-05 0)
(1.40306334246 -3.6787846364e-05 0)
(1.4030522281 -3.04316858381e-05 0)
(1.40304347475 -2.43171734519e-05 0)
(1.40303675744 -1.889092168e-05 0)
(1.40303171559 -1.43209808571e-05 0)
(1.40302799972 -1.06097518586e-05 0)
(1.40302531165 -7.65700374555e-06 0)
(1.40302341842 -5.33786543122e-06 0)
(1.40302214326 -3.52966548064e-06 0)
(1.40302133752 -2.09052781433e-06 0)
(1.40302083823 -9.12398893688e-07 0)
(1.40302045384 3.09129945631e-08 0)
(1.40302010952 7.56180768272e-07 0)
(1.40301988138 1.26342165016e-06 0)
(1.40301976554 1.65118547909e-06 0)
(1.40301967161 1.9846305864e-06 0)
(1.40301956122 2.30423638536e-06 0)
(1.40301942666 2.62960592824e-06 0)
(1.4030192665 2.97089419135e-06 0)
(1.40301908218 3.33375085211e-06 0)
(1.4030188718 3.72051706685e-06 0)
(1.40301862775 4.11558383344e-06 0)
(1.40301836414 4.48018586097e-06 0)
(1.40301811323 4.7861591986e-06 0)
(1.40301790121 4.99686583921e-06 0)
(1.4030177543 5.05681780671e-06 0)
(1.40301769474 4.88169771344e-06 0)
(1.40301772879 4.33602233945e-06 0)
(1.40301782781 3.21352389109e-06 0)
(1.40301806696 1.36323846122e-06 0)
(1.40301855226 -1.4718540861e-06 0)
(1.40301939315 -6.20143455564e-06 0)
(1.40302060511 -1.35870766176e-05 0)
(1.40302182254 -2.49417070693e-05 0)
(1.40302251537 -4.2103672757e-05 0)
(1.40302190626 -6.80420336322e-05 0)
(1.4030184695 -0.000107343176854 0)
(1.40300940153 -0.00016705345011 0)
(1.40298984405 -0.00025810833398 0)
(1.40295150634 -0.000397391499142 0)
(1.40288023013 -0.000611097560857 0)
(1.40275198264 -0.00094012216774 0)
(1.40252651606 -0.00144837474488 0)
(1.4021368776 -0.00223470297526 0)
(1.40147028198 -0.0034495636536 0)
(1.40033672242 -0.00531897642127 0)
(1.3984201966 -0.00816943774505 0)
(1.39520289525 -0.0124417457241 0)
(1.3898637866 -0.0186562952902 0)
(1.3812413621 -0.0272648352625 0)
(1.36781710708 -0.0383681276991 0)
(1.3471618247 -0.0510959070754 0)
(0.994011530867 0.0192358058777 0)
(1.03484763429 0.052333840487 0)
(1.09199262407 0.072363127777 0)
(1.15662419588 0.079129232277 0)
(1.22032115857 0.0761045464781 0)
(1.27701944738 0.0673339714704 0)
(1.3242441835 0.0561509035018 0)
(1.36181573043 0.044799011092 0)
(1.39068530235 0.0345303778769 0)
(1.41226074419 0.0258814329668 0)
(1.42801821502 0.0189465246821 0)
(1.43929883288 0.013584982852 0)
(1.44722806455 0.00955653497947 0)
(1.45270411856 0.00660011589873 0)
(1.45641894185 0.00447419038616 0)
(1.45889142586 0.00297351313614 0)
(1.46050228878 0.00193276774823 0)
(1.46152568328 0.00122369204241 0)
(1.46215569582 0.000749547671788 0)
(1.46252751603 0.000439013316827 0)
(1.46273378686 0.000240514651274 0)
(1.46283692132 0.000117402888569 0)
(1.46287821345 4.40375062362e-05 0)
(1.46288443808 2.6762721915e-06 0)
(1.46287229606 -1.8463711667e-05 0)
(1.46285192528 -2.74623457841e-05 0)
(1.46282935118 -2.94670695665e-05 0)
(1.46280778671 -2.77220972733e-05 0)
(1.46278875991 -2.42251511345e-05 0)
(1.46277281548 -2.01570806852e-05 0)
(1.46275994497 -1.61661379469e-05 0)
(1.46274985455 -1.25748099771e-05 0)
(1.46274213424 -9.5095012617e-06 0)
(1.46273635234 -6.98118799847e-06 0)
(1.46273211046 -4.93616018359e-06 0)
(1.46272906655 -3.30477706229e-06 0)
(1.46272693348 -2.02313479152e-06 0)
(1.46272545643 -1.04951916333e-06 0)
(1.46272441929 -3.40532496905e-07 0)
(1.46272375992 1.92357133341e-07 0)
(1.46272337096 6.80527331997e-07 0)
(1.46272309812 1.16682832989e-06 0)
(1.46272290788 1.60678195048e-06 0)
(1.46272276204 2.00367589143e-06 0)
(1.46272263039 2.37858671487e-06 0)
(1.46272249365 2.74562255441e-06 0)
(1.46272233819 3.11086317612e-06 0)
(1.46272215509 3.4727786087e-06 0)
(1.46272193909 3.82276628931e-06 0)
(1.46272168711 4.15197886944e-06 0)
(1.46272140181 4.45344239006e-06 0)
(1.46272108966 4.69608561587e-06 0)
(1.46272075621 4.83111354933e-06 0)
(1.46272040871 4.79099831971e-06 0)
(1.46272005732 4.48612292488e-06 0)
(1.46271971819 3.80372272212e-06 0)
(1.46271941401 2.61935584259e-06 0)
(1.4627190399 8.56657544542e-07 0)
(1.46271837309 -1.80698837583e-06 0)
(1.46271728174 -6.09974112269e-06 0)
(1.46271551659 -1.28237879933e-05 0)
(1.4627123964 -2.30947899502e-05 0)
(1.46270677985 -3.844219069e-05 0)
(1.46269682716 -6.12298371657e-05 0)
(1.46267942907 -9.50381808977e-05 0)
(1.46264935216 -0.000145256768806 0)
(1.46259805218 -0.00022013445129 0)
(1.46251165034 -0.000332032861956 0)
(1.46236735504 -0.000499618888121 0)
(1.46212782099 -0.000751532444686 0)
(1.46173289261 -0.00113222723826 0)
(1.46108711282 -0.00170880749363 0)
(1.4600374629 -0.0025781864207 0)
(1.45834064178 -0.00388146278721 0)
(1.45561894258 -0.00581328825622 0)
(1.45130070724 -0.00862044418937 0)
(1.44455547037 -0.0125687586424 0)
(1.43429832286 -0.0178468950413 0)
(1.41924517042 -0.0244139261986 0)
(1.3975125608 -0.0317360692048 0)
(0.993269666823 0.00617014962545 0)
(1.03158099828 0.0171020457662 0)
(1.08672181512 0.0239906486648 0)
(1.1517455404 0.0265606658826 0)
(1.21823535771 0.0258180588434 0)
(1.27925773554 0.0230488861446 0)
(1.33140135337 0.0193656315063 0)
(1.37377598088 0.0155468581145 0)
(1.40691052752 0.0120449305362 0)
(1.43203312768 0.00906640023664 0)
(1.45060214172 0.00666059539709 0)
(1.46402984934 0.00479009221579 0)
(1.47355015039 0.00337842914899 0)
(1.48017562212 0.0023387390841 0)
(1.48470227472 0.00158891506949 0)
(1.48773619028 0.00105829024049 0)
(1.4897273269 0.0006894642656 0)
(1.49100275526 0.000437640020329 0)
(1.49179583263 0.000268887367646 0)
(1.49227019906 0.000158112563943 0)
(1.49253868492 8.71257265163e-05 0)
(1.49267775295 4.29753148316e-05 0)
(1.49273827516 1.65842542769e-05 0)
(1.49275343416 1.66169795166e-06 0)
(1.49274417861 -6.07146475987e-06 0)
(1.4927233683 -9.41786913708e-06 0)
(1.49269869791 -1.02257742615e-05 0)
(1.4926743954 -9.66452804948e-06 0)
(1.49265255843 -8.45262794779e-06 0)
(1.49263402887 -7.00794482902e-06 0)
(1.49261892977 -5.57055448686e-06 0)
(1.49260699945 -4.26021468792e-06 0)
(1.49259780908 -3.12420175119e-06 0)
(1.49259088378 -2.16867026716e-06 0)
(1.49258577011 -1.37738954783e-06 0)
(1.49258206842 -7.28382018386e-07 0)
(1.49257944352 -1.99946941405e-07 0)
(1.49257762606 2.29320326012e-07 0)
(1.49257641305 6.0406158235e-07 0)
(1.49257562698 9.82245315539e-07 0)
(1.49257511253 1.29761624336e-06 0)
(1.49257477819 1.59227545649e-06 0)
(1.49257456647 1.88537647646e-06 0)
(1.49257442512 2.18715539588e-06 0)
(1.49257431457 2.50538813134e-06 0)
(1.49257420824 2.84361515668e-06 0)
(1.49257408736 3.20191299637e-06 0)
(1.49257393807 3.57685948865e-06 0)
(1.49257374965 3.96060695972e-06 0)
(1.49257351304 4.34024323768e-06 0)
(1.49257322205 4.69693189563e-06 0)
(1.49257287208 5.00014609463e-06 0)
(1.49257245619 5.20724635384e-06 0)
(1.49257196309 5.25951152585e-06 0)
(1.49257137279 5.076457143e-06 0)
(1.49257065555 4.54615828449e-06 0)
(1.49256979854 3.51465543319e-06 0)
(1.49256868972 1.80329072803e-06 0)
(1.49256686093 -7.28439623873e-07 0)
(1.4925639877 -4.44939906869e-06 0)
(1.49255971487 -1.01562648905e-05 0)
(1.4925530097 -1.85974684279e-05 0)
(1.49254223539 -3.08010386342e-05 0)
(1.49252482073 -4.82935413034e-05 0)
(1.49249660708 -7.32138876469e-05 0)
(1.49245076223 -0.000108535937511 0)
(1.49237644413 -0.000158752143777 0)
(1.49225649574 -0.000230020004035 0)
(1.4920630752 -0.000330865327798 0)
(1.49175073317 -0.000474232345087 0)
(1.49124758177 -0.000681738175061 0)
(1.49044396059 -0.000983855293457 0)
(1.48916759216 -0.00141422153903 0)
(1.48715016027 -0.00202124186471 0)
(1.48398899551 -0.00286689384911 0)
(1.47909718515 -0.00401963793717 0)
(1.471656699 -0.00553536147776 0)
(1.46063690829 -0.00741798491455 0)
(1.44486479603 -0.00957669929842 0)
(1.42269259249 -0.0117664418149 0)
(0.993270464604 -0.00616840292313 0)
(1.03158098083 -0.0171003766792 0)
(1.08672174872 -0.0239897621782 0)
(1.15174557794 -0.0265602474595 0)
(1.21823543549 -0.0258179937928 0)
(1.27925783749 -0.0230491108186 0)
(1.33140147932 -0.0193660477935 0)