/*--------------------------------*- C++ -*----------------------------------*\
| =========                 |                                                 |
| \\      /  F ield         | OpenFOAM: The Open Source CFD Toolbox           |
|  \\    /   O peration     | Version:  2106                                  |
|   \\  /    A nd           | Website:  www.openfoam.com                      |
|    \\/     M anipulation  |                                                 |
\*---------------------------------------------------------------------------*/
FoamFile
{
    version     2.0;
    format      ascii;
    arch        "LSB;label=32;scalar=64";
    class       surfaceScalarField;
    location    "0.25";
    object      phi;
}
// * * * * * * * * * * * * * * * * * * * * * * * * * * * * * * * * * * * * * //

dimensions      [0 3 -1 0 0 0 0];

oriented        oriented;

internalField   nonuniform List<scalar> 
18840
(
3.37543046753e-05
1.6245695324e-05
2.25359622315e-05
1.12183414206e-05
1.63023776917e-05
6.23358460619e-06
1.28098250456e-05
3.49255305253e-06
1.08065799663e-05
2.00324499895e-06
9.60476888637e-06
1.20181074308e-06
8.85167829763e-06
7.53090589725e-07
8.36503059517e-06
4.86647868272e-07
8.04518599031e-06
3.19844531934e-07
7.83374176776e-06
2.11444163969e-07
7.69428181721e-06
1.39460003884e-07
7.60308014634e-06
9.12017066912e-08
7.54426519798e-06
5.88149205616e-08
7.50707688724e-06
3.7188318115e-08
7.48418891052e-06
2.28879805044e-08
7.47062334113e-06
1.35655371661e-08
7.46302078437e-06
7.60253498985e-09
7.45913804126e-06
3.88274554086e-09
7.45749830941e-06
1.63971618871e-09
7.45714523994e-06
3.53059595513e-10
7.45748259686e-06
-3.37378510959e-10
7.45813364039e-06
-6.51069330006e-10
7.45888564127e-06
-7.51987241531e-10
7.45961931671e-06
-7.33716611164e-10
7.46027570404e-06
-6.56508130917e-10
7.46083211927e-06
-5.5651734316e-10
7.46128626866e-06
-4.54244971568e-10
7.46164644322e-06
-3.60271959887e-10
7.46192559398e-06
-2.79213632708e-10
7.46213777946e-06
-2.12228516441e-10
7.46229634757e-06
-1.58584165134e-10
7.4624130462e-06
-1.16663486319e-10
7.46249770768e-06
-8.45689796822e-11
7.46255828202e-06
-6.04567126687e-11
7.46260099804e-06
-4.26384174267e-11
7.46263070712e-06
-2.96620880657e-11
7.46265113434e-06
-2.03666588549e-11
7.46266497349e-06
-1.37935922746e-11
7.46267418897e-06
-9.17421688494e-12
7.46268025893e-06
-6.00233043952e-12
7.46268420542e-06
-3.91586097568e-12
7.4626867977e-06
-2.56654454537e-12
7.46268851967e-06
-1.67780490984e-12
7.46268963281e-06
-1.00668501952e-12
7.46269038515e-06
-6.3922577421e-13
7.46269093983e-06
-4.53776002493e-13
7.46269139579e-06
-3.69826451152e-13
7.46269183559e-06
-3.25606721709e-13
7.46269227151e-06
-2.85500066826e-13
7.46269271357e-06
-2.54091468865e-13
7.46269316238e-06
-2.69339904428e-13
7.46269359703e-06
-3.07586181986e-13
7.46269403493e-06
-3.33940983446e-13
7.46269450676e-06
-3.58471591349e-13
7.46269500563e-06
-3.9734529222e-13
7.4626955441e-06
-4.37183553829e-13
7.46269612575e-06
-4.75739111279e-13
7.46269674478e-06
-4.98775361698e-13
7.46269738776e-06
-5.1600829586e-13
7.46269805338e-06
-5.46679722001e-13
7.46269873843e-06
-6.13725316441e-13
7.46269944787e-06
-6.79430754731e-13
7.46270017976e-06
-7.01870676117e-13
7.46270094326e-06
-6.96570143852e-13
7.46270173429e-06
-7.20172061968e-13
7.46270253175e-06
-7.69661894034e-13
7.46270332621e-06
-8.08529667442e-13
7.46270412729e-06
-8.32900895995e-13
7.46270495689e-06
-8.66158409074e-13
7.46270583336e-06
-9.22633366653e-13
7.46270676769e-06
-9.7512597196e-13
7.4627077552e-06
-9.88573379437e-13
7.46270878024e-06
-9.80125512799e-13
7.46270984373e-06
-1.01149127447e-12
7.46271095107e-06
-1.09423979557e-12
7.46271209425e-06
-1.16055029258e-12
7.46271326759e-06
-1.17111509573e-12
7.46271447224e-06
-1.18081225293e-12
7.46271571047e-06
-1.24983362091e-12
7.46271699641e-06
-1.34536298433e-12
7.46271835222e-06
-1.39298576763e-12
7.46271976882e-06
-1.38845702047e-12
7.46272121979e-06
-1.41391628592e-12
7.46272271834e-06
-1.53310344008e-12
7.46272429047e-06
-1.68010794315e-12
7.46272593892e-06
-1.72956508294e-12
7.46272768593e-06
-1.69273753858e-12
7.4627295585e-06
-1.70380298813e-12
7.46273151026e-06
-1.79889043579e-12
7.46273346786e-06
-1.87763923886e-12
7.46273542888e-06
-1.88264428315e-12
7.4627374483e-06
-1.89167675826e-12
7.46273957115e-06
-2.00303670912e-12
7.46274178969e-06
-2.16279684694e-12
7.46274407917e-06
-2.23089056872e-12
7.46274643951e-06
-2.23036031265e-12
7.46274889406e-06
-2.31616326443e-12
7.46275151736e-06
-2.53414276214e-12
7.46275432109e-06
-2.76301058279e-12
7.46275723178e-06
-2.89663746644e-12
7.46276033288e-06
-3.0411466641e-12
7.46276380812e-06
-3.37749917519e-12
7.46276770254e-06
-3.88320572702e-12
7.46277202135e-06
-4.37591875892e-12
7.46277687703e-06
-4.84094172048e-12
7.46278241015e-06
-5.44841680272e-12
7.46278874169e-06
-6.33514818002e-12
7.46279606971e-06
-7.47945196075e-12
7.46280469271e-06
-8.82440988503e-12
7.46281493434e-06
-1.03971552336e-11
7.46282721433e-06
-1.22720840626e-11
7.46284214706e-06
-1.46750783246e-11
7.46286027674e-06
-1.78779058474e-11
7.46288201273e-06
-2.18573890917e-11
7.46290830266e-06
-2.65534239204e-11
7.46294069279e-06
-3.23939989248e-11
7.46298063804e-06
-3.98854643552e-11
7.46302959903e-06
-4.90815573855e-11
7.46308972524e-06
-6.02031878362e-11
7.46316388951e-06
-7.40341054263e-11
7.46325538387e-06
-9.14108224745e-11
7.46336836564e-06
-1.13012424736e-10
7.4635081679e-06
-1.39788948881e-10
7.46368220887e-06
-1.74155763606e-10
7.46389991756e-06
-2.17761045601e-10
7.46416565484e-06
-2.65978107262e-10
7.46449383123e-06
-3.28301012443e-10
7.46489994095e-06
-4.06342511225e-10
7.46540275216e-06
-5.03049933907e-10
7.46602558037e-06
-6.22780460377e-10
7.46679707502e-06
-7.71333161112e-10
7.4677525438e-06
-9.55489011092e-10
7.4689360762e-06
-1.1836363449e-09
7.47040222759e-06
-1.4662748259e-09
7.47221878708e-06
-1.81658403115e-09
7.47447026292e-06
-2.25124434165e-09
7.47726103101e-06
-2.790615323e-09
7.48072098374e-06
-3.45987256508e-09
7.48501233684e-06
-4.29110271476e-09
7.49033715887e-06
-5.32460901044e-09
7.49694768749e-06
-6.61050872158e-09
7.50515972203e-06
-8.21199013191e-09
7.51536990486e-06
-1.02098782973e-08
7.52807739088e-06
-1.2707236182e-08
7.54391347934e-06
-1.58359270951e-08
7.56368045607e-06
-1.97667925507e-08
7.58840415002e-06
-2.4723583803e-08
7.61940689526e-06
-3.1002893465e-08
7.65840967888e-06
-3.90032649038e-08
7.70768234962e-06
-4.92724092159e-08
7.77026704816e-06
-6.25844689689e-08
7.85035033223e-06
-8.00839222126e-08
7.95395318254e-06
-1.03603300334e-07
8.09042880667e-06
-1.36475937685e-07
8.27631757178e-06
-1.85888787098e-07
8.54625126408e-06
-2.69934203961e-07
8.98531987705e-06
-4.39069504374e-07
9.831989637e-06
-8.46670067457e-07
1.18200403843e-05
-1.9880508818e-06
-5.38800539908e-06
1.72080461782e-05
5.01388821626e-05
1.61068139345e-05
4.41591293833e-05
1.71980938362e-05
3.7759873424e-05
1.26328398413e-05
3.2649514221e-05
8.6029122213e-06
2.89465820285e-05
5.70617751243e-06
2.63676029439e-05
3.78078969259e-06
2.45938848544e-05
2.52680840987e-06
2.33783980385e-05
1.70213481419e-06
2.25473235766e-05
1.15091907399e-06
2.1981156525e-05
7.77611148538e-07
2.15978041314e-05
5.22812384309e-07
2.1340541213e-05
3.4846470893e-07
2.11699437404e-05
2.29412406668e-07
2.10585360116e-05
1.48596010991e-07
2.0987184935e-05
9.42390158711e-08
2.09426213907e-05
5.81290234431e-08
2.09157068565e-05
3.45170181632e-08
2.09002070811e-05
1.93825024069e-08
2.08919195944e-05
9.92716371669e-09
2.08880544516e-05
4.21819165536e-09
2.08867848011e-05
9.32281512199e-10
2.08869497631e-05
-8.16105220615e-10
2.08878280446e-05
-1.63037532097e-09
2.08889865298e-05
-1.89232691311e-09
2.08901798649e-05
-1.85004848324e-09
2.08912803506e-05
-1.6571850834e-09
2.08922317798e-05
-1.40578552359e-09
2.0893019406e-05
-1.14798404593e-09
2.08936509635e-05
-9.10812446965e-10
2.08941448296e-05
-7.06086144644e-10
2.08945230973e-05
-5.36782205215e-10
2.08948076885e-05
-4.011309863e-10
2.08950183876e-05
-2.95128710603e-10
2.08951720979e-05
-2.14022190142e-10
2.08952826408e-05
-1.53095558504e-10
2.08953610465e-05
-1.08027756278e-10
2.08954159742e-05
-7.51725680985e-11
2.08954539414e-05
-5.15979005854e-11
2.08954797594e-05
-3.4914630072e-11
2.08954970303e-05
-2.32654486639e-11
2.08955083912e-05
-1.52204414167e-11
2.08955156597e-05
-9.74222674196e-12
2.08955202504e-05
-6.06831312274e-12
2.08955231464e-05
-3.69420632052e-12
2.08955249223e-05
-2.20867564698e-12
2.0895525973e-05
-1.2990446008e-12
2.08955265907e-05
-7.44310018091e-13
2.089552708e-05
-5.31924681975e-13
2.08955274726e-05
-4.08708430699e-13
2.0895527787e-05
-3.35080703854e-13
2.08955280925e-05
-3.18037083114e-13
2.08955283899e-05
-3.58713864409e-13
2.0895528677e-05
-4.21641255196e-13
2.0895528984e-05
-4.93399489003e-13
2.08955293285e-05
-5.66982636513e-13
2.08955297187e-05
-6.33122447099e-13
2.08955301674e-05
-6.9338528751e-13
2.08955306429e-05
-7.68252184767e-13
2.0895531134e-05
-8.5639253948e-13
2.08955316421e-05
-9.46399604604e-13
2.08955321925e-05
-1.03940859677e-12
2.08955327805e-05
-1.13706162345e-12
2.08955333802e-05
-1.21465144753e-12
2.08955339826e-05
-1.26582910588e-12
2.08955346075e-05
-1.31249903045e-12
2.08955352464e-05
-1.37922451861e-12
2.0895535879e-05
-1.45865903932e-12
2.08955365035e-05
-1.52569563969e-12
2.08955371411e-05
-1.5760053156e-12
2.08955378312e-05
-1.62590671391e-12
2.08955385908e-05
-1.69290289634e-12
2.08955393832e-05
-1.76647608473e-12
2.08955401686e-05
-1.82602651438e-12
2.089554098e-05
-1.86934207169e-12
2.08955418601e-05
-1.92079782339e-12
2.08955427871e-05
-2.00051669468e-12
2.08955437137e-05
-2.09906743141e-12
2.08955446372e-05
-2.19595428677e-12
2.08955456079e-05
-2.28730410075e-12
2.08955466665e-05
-2.38075161413e-12
2.0895547793e-05
-2.47996840321e-12
2.08955489328e-05
-2.58740286981e-12
2.08955500902e-05
-2.69733883235e-12
2.08955513444e-05
-2.80686662124e-12
2.08955527268e-05
-2.9349700441e-12
2.08955541835e-05
-3.07515807738e-12
2.0895555705e-05
-3.17193094505e-12
2.0895557357e-05
-3.21552396528e-12
2.08955591448e-05
-3.28657879051e-12
2.0895560993e-05
-3.44166832454e-12
2.08955628563e-05
-3.63417770109e-12
2.08955647963e-05
-3.80214000535e-12
2.0895566948e-05
-3.97642771693e-12
2.08955693486e-05
-4.22248084056e-12
2.08955719106e-05
-4.54779257308e-12
2.08955746246e-05
-4.92965991342e-12
2.08955776096e-05
-5.3263864251e-12
2.08955810365e-05
-5.74358261958e-12
2.08955849881e-05
-6.33328429213e-12
2.08955893393e-05
-7.16846620536e-12
2.08955941776e-05
-8.13239817334e-12
2.08955998843e-05
-9.18078259708e-12
2.08956067123e-05
-1.05002105968e-11
2.08956147184e-05
-1.22089927265e-11
2.08956240933e-05
-1.42746880818e-11
2.08956352314e-05
-1.67634298307e-11
2.08956485722e-05
-1.98381813875e-11
2.08956646233e-05
-2.35826219876e-11
2.0895683939e-05
-2.80850925623e-11
2.08957068569e-05
-3.33349889044e-11
2.08957349457e-05
-4.05503570211e-11
2.08957701812e-05
-4.99522724319e-11
2.08958138176e-05
-6.12225468975e-11
2.08958674315e-05
-7.53473962004e-11
2.08959332546e-05
-9.27551299795e-11
2.08960146001e-05
-1.14054623484e-10
2.08961154195e-05
-1.40458720375e-10
2.08962399706e-05
-1.73378596493e-10
2.08963936623e-05
-2.14107184452e-10
2.0896583653e-05
-2.64374990489e-10
2.08968186859e-05
-3.26561488351e-10
2.08971094417e-05
-4.03473121581e-10
2.08974686029e-05
-4.98847389395e-10
2.0897911258e-05
-6.17004526037e-10
2.08984566387e-05
-7.63823468457e-10
2.0899136673e-05
-9.46355552743e-10
2.08999812255e-05
-1.1728256851e-09
2.09010285941e-05
-1.45353778852e-09
2.090232654e-05
-1.80111460302e-09
2.09039348802e-05
-2.23136116095e-09
2.09059278308e-05
-2.76427861086e-09
2.0908396998e-05
-3.42457287413e-09
2.09114562841e-05
-4.24275474934e-09
2.09152468313e-05
-5.25679262102e-09
2.09199437432e-05
-6.51366107532e-09
2.09257649642e-05
-8.07211047525e-09
2.09329806093e-05
-1.00056245815e-08
2.094192641e-05
-1.24054450011e-08
2.09530210579e-05
-1.538564637e-08
2.09667865331e-05
-1.90895947805e-08
2.09838742386e-05
-2.36975507449e-08
2.10050991219e-05
-2.94367831537e-08
2.10314845563e-05
-3.65955457353e-08
2.10643187414e-05
-4.55416009754e-08
2.11052300007e-05
-5.67472117302e-08
2.11562877193e-05
-7.08244040602e-08
2.1220139261e-05
-8.85752160456e-08
2.13002014067e-05
-1.11065346642e-07
2.14009322163e-05
-1.39735217767e-07
2.1528239286e-05
-1.76579916398e-07
2.16901113263e-05
-2.244555743e-07
2.18976674921e-05
-2.87639620516e-07
2.21670245413e-05
-3.7296001258e-07
2.25228223115e-05
-4.92272949704e-07
2.30052525971e-05
-6.68317639619e-07
2.36843640438e-05
-9.49044561493e-07
2.46872853906e-05
-1.4419901116e-06
2.62361207905e-05
-2.39550461317e-06
2.86368860694e-05
-4.38881521482e-06
-8.5962864961e-06
3.18451674386e-05
5.35844267221e-05
1.25223872631e-05
5.29166009858e-05
1.7865919912e-05
4.96393013489e-05
1.59101390704e-05
4.5838216744e-05
1.24039964621e-05
4.24428744519e-05
9.1015199802e-06
3.97331592058e-05
6.49050505506e-06
3.76912450478e-05
4.56872234205e-06
3.62011667168e-05
3.1922131267e-06
3.5135593365e-05
2.21649251769e-06
3.43848442549e-05
1.52836025089e-06
3.38626586547e-05
1.04499795115e-06
3.35040063202e-05
7.07117099443e-07
3.32609622974e-05
4.7245644987e-07
3.30987202208e-05
3.10838027987e-07
3.29922901843e-05
2.00668971567e-07
3.29239189856e-05
1.2650014406e-07
3.28811290695e-05
7.73068755486e-08
3.28552505019e-05
4.52610560078e-08
3.28403340066e-05
2.48436376183e-08
3.28323540837e-05
1.21981119239e-08
3.28286282222e-05
4.65816591612e-09
3.28274042643e-05
4.07776800704e-10
3.28275636483e-05
-1.78989165611e-09
3.28284096989e-05
-2.73845745678e-09
3.28295257644e-05
-2.96620486465e-09
3.28306753721e-05
-2.80688934973e-09
3.28317354708e-05
-2.46595303667e-09
3.2832651899e-05
-2.06448845674e-09
3.28334105251e-05
-1.66949444037e-09
3.28340188089e-05
-1.31436829344e-09
3.28344944661e-05
-1.01237424472e-09
3.28348587673e-05
-7.65337111284e-10
3.28351327951e-05
-5.69082033333e-10
3.28353356409e-05
-4.1679356562e-10
3.28354835833e-05
-3.00956659494e-10
3.28355899333e-05
-2.1433834518e-10
3.28356653579e-05
-1.50551470556e-10
3.28357181394e-05
-1.04283634532e-10
3.2835754495e-05
-7.12227530375e-11
3.28357791663e-05
-4.78921261391e-11
3.2835795663e-05
-3.16456799497e-11
3.28358065412e-05
-2.04809700608e-11
3.28358135994e-05
-1.29669031388e-11
3.28358180952e-05
-8.03379581182e-12
3.28358209151e-05
-4.88625851599e-12
3.2835822712e-05
-2.91213645756e-12
3.28358239009e-05
-1.68526856555e-12
3.28358246228e-05
-9.47045512873e-13
3.2835825028e-05
-5.21830102708e-13
3.28358252707e-05
-3.6306105898e-13
3.28358254564e-05
-3.25581738112e-13
3.2835825625e-05
-3.46907375803e-13
3.28358257769e-05
-4.23413855936e-13
3.28358259468e-05
-5.18359250546e-13
3.28358261526e-05
-6.22181093373e-13
3.28358264064e-05
-7.27172867279e-13
3.28358267053e-05
-8.32803672871e-13
3.28358270388e-05
-9.52161368772e-13
3.28358273916e-05
-1.12055504204e-12
3.28358277633e-05
-1.26840501427e-12
3.28358281739e-05
-1.3723475222e-12
3.28358286276e-05
-1.45142968947e-12
3.28358290853e-05
-1.53807759257e-12
3.2835829526e-05
-1.63200547204e-12
3.28358299741e-05
-1.72368008086e-12
3.2835830441e-05
-1.81311187229e-12
3.2835830907e-05
-1.89969923779e-12
3.28358313453e-05
-1.98914162589e-12
3.28358317645e-05
-2.06505377433e-12
3.28358322175e-05
-2.12145307951e-12
3.28358327382e-05
-2.18188682185e-12
3.28358332968e-05
-2.27542964812e-12
3.28358338438e-05
-2.38971578167e-12
3.2835834391e-05
-2.48298504808e-12
3.28358349858e-05
-2.55344923296e-12
3.28358356287e-05
-2.64475805106e-12
3.28358362731e-05
-2.77553974155e-12
3.28358368999e-05
-2.90666240477e-12
3.28358375628e-05
-3.0026372854e-12
3.28358383164e-05
-3.09265222368e-12
3.28358391354e-05
-3.23911099751e-12
3.28358399551e-05
-3.45157520137e-12
3.28358407718e-05
-3.65102948462e-12
3.28358416664e-05
-3.76997976204e-12
3.28358427046e-05
-3.86590352957e-12
3.28358438518e-05
-4.02830633286e-12
3.28358450528e-05
-4.22801357893e-12
3.28358463387e-05
-4.38519974182e-12
3.2835847762e-05
-4.52069621386e-12
3.28358493016e-05
-4.73961511698e-12
3.28358509011e-05
-5.08422051642e-12
3.28358525791e-05
-5.46241549869e-12
3.2835854478e-05
-5.79676238483e-12
3.28358566866e-05
-6.17737425337e-12
3.28358591361e-05
-6.74173681978e-12
3.28358618225e-05
-7.49857065772e-12
3.28358648535e-05
-8.33637606127e-12
3.28358683445e-05
-9.18579920417e-12
3.28358723532e-05
-1.017687952e-11
3.28358770571e-05
-1.17435891279e-11
3.28358826159e-05
-1.37677365704e-11
3.28358893209e-05
-1.60045283495e-11
3.28358975407e-05
-1.86738612579e-11
3.28359074912e-05
-2.20386360243e-11
3.28359194562e-05
-2.62609851526e-11
3.2835933973e-05
-3.14661013227e-11
3.28359517523e-05
-3.78059531214e-11
3.28359736141e-05
-4.5540188097e-11
3.28360006926e-05
-5.51286579519e-11
3.28360346896e-05
-6.71670749593e-11
3.28360763998e-05
-8.21847456669e-11
3.28361269316e-05
-1.00669003146e-10
3.28361890609e-05
-1.23461318708e-10
3.2836265706e-05
-1.51877000858e-10
3.28363600928e-05
-1.87224071672e-10
3.2836476556e-05
-2.30794604991e-10
3.28366207024e-05
-2.84605908409e-10
3.28367989727e-05
-3.51387145337e-10
3.28370191156e-05
-4.34168804543e-10
3.28372911963e-05
-5.36611302098e-10
3.28376278333e-05
-6.6326412391e-10
3.28380443133e-05
-8.20074973689e-10
3.28385597773e-05
-1.01432381385e-09
3.28391977341e-05
-1.2551794061e-09
3.28399874052e-05
-1.55365384004e-09
3.28409643078e-05
-1.92356695774e-09
3.28421735342e-05
-2.38225020851e-09
3.2843670925e-05
-2.95084400603e-09
3.28455251118e-05
-3.65532126526e-09
3.28478213326e-05
-4.52778259721e-09
3.2850665415e-05
-5.6084383272e-09
3.28541880902e-05
-6.94724849457e-09
3.28585516388e-05
-8.60618475034e-09
3.28639573737e-05
-1.0662286519e-08
3.28706546785e-05
-1.32109595882e-08
3.28789536643e-05
-1.63709835227e-08
3.2889239278e-05
-2.02908571062e-08
3.29019895426e-05
-2.51555633622e-08
3.2917799713e-05
-3.11958964808e-08
3.2937411556e-05
-3.87012798286e-08
3.2961750207e-05
-4.80357447674e-08
3.29919715917e-05
-5.96580306477e-08
3.30295248064e-05
-7.41487829812e-08
3.30762309139e-05
-9.22476045148e-08
3.31343865934e-05
-1.14902710878e-07
3.32069025035e-05
-1.43340196667e-07
3.32974896101e-05
-1.7916251713e-07
3.34109171754e-05
-2.24492510913e-07
3.35533729008e-05
-2.82190894105e-07
3.37329927605e-05
-3.56200315362e-07
3.3960656791e-05
-4.52119681692e-07
3.4251233009e-05
-5.7821628706e-07
3.462559001e-05
-7.47317293819e-07
3.51138664896e-05
-9.80549924645e-07
3.57605821434e-05
-1.31503375619e-06
3.66314455664e-05
-1.81990795288e-06
3.78177065698e-05
-2.62825171404e-06
3.94162646211e-05
-3.99406281658e-06
4.14048319631e-05
-6.37738251268e-06
-1.04421868745e-05
4.32507325605e-05
5.35705198372e-05
8.95186700586e-06
5.55863057212e-05
1.58501344415e-05
5.5241058886e-05
1.62553859013e-05
5.35976155968e-05
1.40474393569e-05
5.15429056802e-05
1.115622984e-05
4.95819403561e-05
8.4514706018e-06
4.79262510112e-05
6.2244115779e-06
4.6620039571e-05
4.49842444653e-06
4.56322336844e-05
3.20429844342e-06
4.49066875207e-05
2.25390645816e-06
4.4385442142e-05
1.566243324e-06
4.4017832816e-05
1.07472644253e-06
4.37629123041e-05
7.27376941071e-07
4.35890447491e-05
4.84705476938e-07
4.34725014593e-05
3.17212135093e-07
4.33958684006e-05
2.03133112631e-07
4.33465903566e-05
1.26584867405e-07
4.3315756257e-05
7.60951635821e-08
4.32971348217e-05
4.34650765219e-08
4.32864332056e-05
2.28996871835e-08
4.32807398939e-05
1.03514623437e-08
4.32781171363e-05
3.03049263814e-09
4.32772904141e-05
-9.63252316448e-10
4.32774549245e-05
-2.90299545055e-09
4.32781063189e-05
-3.61762218083e-09
4.32789442812e-05
-3.64491322799e-09
4.32797992133e-05
-3.32094408281e-09
4.32805835038e-05
-2.84884203453e-09
4.32812592758e-05
-2.34531066942e-09
4.32818173742e-05
-1.87246860433e-09
4.32822640543e-05
-1.45902145099e-09
4.32826128224e-05
-1.11404887798e-09
4.32828795637e-05
-8.35797266601e-10
4.32830799626e-05
-6.17173291975e-10
4.32832281553e-05
-4.49079692767e-10
4.32833360943e-05
-3.22226621606e-10
4.32834136031e-05
-2.28038833829e-10
4.32834685166e-05
-1.59167625112e-10
4.32835068718e-05
-1.09527799304e-10
4.3283533283e-05
-7.42262661776e-11
4.32835512317e-05
-4.94538455416e-11
4.32835632248e-05
-3.23367910398e-11
4.32835711033e-05
-2.07074752193e-11
4.32835761885e-05
-1.29708758319e-11
4.32835794222e-05
-7.92964276291e-12
4.32835814488e-05
-4.70026400763e-12
4.32835826988e-05
-2.66890817829e-12
4.32835834927e-05
-1.44883735458e-12
4.32835840418e-05
-7.82207362266e-13
4.32835843637e-05
-4.74202663544e-13
4.32835845588e-05
-3.59338254341e-13
4.32835846809e-05
-3.2289391489e-13
4.32835847608e-05
-3.76082368703e-13
4.32835848277e-05
-4.61402671039e-13
4.3283584903e-05
-5.54793310523e-13
4.32835849974e-05
-6.80489475777e-13
4.32835851174e-05
-8.1595141493e-13
4.32835852505e-05
-9.74627446751e-13
4.32835853904e-05
-1.16581222322e-12
4.32835855501e-05
-1.33939504545e-12
4.32835857326e-05
-1.45186900445e-12
4.32835859391e-05
-1.5222696964e-12
4.3283586147e-05
-1.6067052552e-12
4.32835863265e-05
-1.72048858496e-12
4.32835864921e-05
-1.8361490135e-12
4.32835866606e-05
-1.93052245427e-12
4.32835868207e-05
-2.01441572361e-12
4.32835869554e-05
-2.11476126303e-12
4.3283587068e-05
-2.22020830681e-12
4.32835871874e-05
-2.29489734649e-12
4.32835873391e-05
-2.35059848051e-12
4.328358752e-05
-2.44211500261e-12
4.3283587698e-05
-2.57632903217e-12
4.32835878626e-05
-2.70447119753e-12
4.32835880394e-05
-2.80119677834e-12
4.32835882393e-05
-2.88646668375e-12
4.32835884383e-05
-2.98845605537e-12
4.32835886132e-05
-3.107649439e-12
4.32835887882e-05
-3.21914822951e-12
4.32835890051e-05
-3.334261949e-12
4.32835892709e-05
-3.51161528803e-12
4.32835895725e-05
-3.76335867362e-12
4.32835898998e-05
-4.00841069296e-12
4.32835902693e-05
-4.17289235112e-12
4.32835907388e-05
-4.29626534011e-12
4.32835913369e-05
-4.47413377037e-12
4.32835920254e-05
-4.72651372182e-12
4.32835927874e-05
-4.99395906448e-12
4.3283593645e-05
-5.25086334189e-12
4.32835946145e-05
-5.56245727878e-12
4.32835957162e-05
-6.01297134199e-12
4.3283596967e-05
-6.56371349187e-12
4.32835984205e-05
-7.12617570763e-12
4.32836001553e-05
-7.76743317996e-12
4.32836022002e-05
-8.63054572468e-12
4.32836046313e-05
-9.76006657277e-12
4.32836075569e-05
-1.11214230854e-11
4.32836110546e-05
-1.26858532935e-11
4.32836153835e-05
-1.45415404249e-11
4.32836206147e-05
-1.68999383508e-11
4.32836268034e-05
-1.98955803721e-11
4.32836342574e-05
-2.35016059595e-11
4.32836433754e-05
-2.78193613844e-11
4.32836545367e-05
-3.31618263808e-11
4.32836681408e-05
-3.98666453684e-11
4.32836847687e-05
-4.81430847131e-11
4.32837051883e-05
-5.82602286781e-11
4.32837302718e-05
-7.07259159882e-11
4.32837611346e-05
-8.61613780667e-11
4.32837993209e-05
-1.05316245527e-10
4.32838465959e-05
-1.29238243616e-10
4.32839048224e-05
-1.58915794913e-10
4.32839766103e-05
-1.95457452311e-10
4.32840654413e-05
-2.40736566519e-10
4.32841752831e-05
-2.97014029324e-10
4.32843109576e-05
-3.66644611325e-10
4.3284478803e-05
-4.52602471257e-10
4.32846865285e-05
-5.58957013863e-10
4.32849432945e-05
-6.90827860036e-10
4.32852608694e-05
-8.54149922775e-10
4.32856537974e-05
-1.05635440103e-09
4.32861400491e-05
-1.30661607305e-09
4.32867419293e-05
-1.61644649504e-09
4.32874870501e-05
-2.00022068907e-09
4.32884093792e-05
-2.47588620209e-09
4.32895509604e-05
-3.06525690067e-09
4.32909639777e-05
-3.7955015021e-09
4.32927134115e-05
-4.70028862004e-09
4.32948794217e-05
-5.8212200879e-09
4.32975612291e-05
-7.20963584178e-09
4.33008821454e-05
-8.92936459544e-09
4.33049945892e-05
-1.10597842425e-08
4.33100876212e-05
-1.36993274657e-08
4.33163959649e-05
-1.69703714591e-08
4.33242100663e-05
-2.10248360577e-08
4.33338905649e-05
-2.60514346452e-08
4.33458854223e-05
-3.22855319817e-08
4.33607506527e-05
-4.00205773669e-08
4.33791774399e-05
-4.96226286299e-08
4.34020259282e-05
-6.15498755511e-08
4.34303677258e-05
-7.63775850637e-08
4.34655392805e-05
-9.48297816093e-08
4.35092114406e-05
-1.17821175887e-07
4.35634776497e-05
-1.46513693163e-07
4.36309677803e-05
-1.82392426994e-07
4.37149980742e-05
-2.27370204214e-07
4.38197694456e-05
-2.83934207962e-07
4.39506355418e-05
-3.5535836505e-07
4.41144642927e-05
-4.46019108807e-07
4.43201446239e-05
-5.61880564532e-07
4.45793008844e-05
-7.11275734297e-07
4.49072976302e-05
-9.06212881283e-07
4.5324633995e-05
-1.16465310827e-06
4.58586947893e-05
-1.51461080712e-06
4.65453005459e-05
-2.00163989313e-06
4.74277008541e-05
-2.70230806083e-06
4.85458603773e-05
-3.74641176713e-06
4.98975698326e-05
-5.3457732714e-06
5.13301482583e-05
-7.80996157387e-06
-1.14519998029e-05
5.2339960815e-05
5.27606082674e-05
6.19125830331e-06
5.57402405087e-05
1.28705023241e-05
5.73124120396e-05
1.46832146809e-05
5.76111978225e-05
1.37486533876e-05
5.71338683256e-05
1.16335591105e-05
5.63199839831e-05
9.26535512546e-06
5.54496448456e-05
7.0947507242e-06
5.46637026779e-05
5.28436648248e-06
5.40144128074e-05
3.85358829295e-06
5.35068422777e-05
2.76147703218e-06
5.31248778023e-05
1.94820779452e-06
5.28455237908e-05
1.35408039939e-06
5.2645887585e-05
9.27013052772e-07
5.25060748906e-05
6.24518048711e-07
5.24099971812e-05
4.13289724297e-07
5.23452156203e-05
2.67914600919e-07
5.23024106537e-05
1.69389807346e-07
5.22747657946e-05
1.03740051896e-07
5.22573936376e-05
6.08372448441e-08
5.2246851544e-05
3.34417030488e-08
5.22407552729e-05
1.64476698051e-08
5.22374822817e-05
6.30346412497e-09
5.22359410395e-05
5.77970355846e-10
5.22354257583e-05
-2.38768650424e-09
5.22354777036e-05
-3.66954391395e-09
5.22358125259e-05
-3.9797785843e-09
5.22362597722e-05
-3.76824665221e-09
5.22367225954e-05
-3.31170137134e-09
5.22371504247e-05
-2.77315519324e-09
5.22375208394e-05
-2.24290111259e-09
5.22378277891e-05
-1.7659952505e-09
5.22380741143e-05
-1.36037062753e-09
5.22382668362e-05
-1.02851691833e-09
5.22384144789e-05
-7.64824603986e-10
5.22385255869e-05
-5.6016448643e-10
5.22386078523e-05
-4.04454216114e-10
5.22386678358e-05
-2.88015487335e-10
5.22387109889e-05
-2.02286143284e-10
5.22387416125e-05
-1.40077447483e-10
5.22387630504e-05
-9.55444679164e-11
5.22387778642e-05
-6.41195997048e-11
5.22387879475e-05
-4.22851620741e-11
5.22387947122e-05
-2.73586783021e-11
5.22387992112e-05
-1.73166192911e-11
5.22388022033e-05
-1.06806425907e-11
5.2238804207e-05
-6.39425874701e-12
5.2238805535e-05
-3.68937298602e-12
5.22388063825e-05
-2.02091384993e-12
5.22388068976e-05
-1.0425702211e-12
5.22388071705e-05
-5.20812076624e-13
5.22388072627e-05
-2.79715072752e-13
5.22388072748e-05
-1.92746731811e-13
5.22388072655e-05
-2.44139732518e-13
5.22388072418e-05
-3.29500417841e-13
5.2238807235e-05
-4.65297907338e-13
5.22388072435e-05
-6.19013449793e-13
5.22388072669e-05
-7.89303401567e-13
5.22388073191e-05
-9.66015885862e-13
5.22388073979e-05
-1.13889249665e-12
5.22388074955e-05
-1.28799072174e-12
5.22388075864e-05
-1.3925120287e-12
5.22388076638e-05
-1.46241726433e-12
5.22388077272e-05
-1.54273139751e-12
5.22388077726e-05
-1.66008665209e-12
5.22388078156e-05
-1.79201094041e-12
5.22388078509e-05
-1.90696292744e-12
5.22388078552e-05
-1.99793847214e-12
5.22388078245e-05
-2.08309882389e-12
5.22388077746e-05
-2.17368426814e-12
5.22388077196e-05
-2.25829898168e-12
5.2238807668e-05
-2.33101601727e-12
5.22388076275e-05
-2.41747800066e-12
5.22388075882e-05
-2.53997193664e-12
5.22388075407e-05
-2.67667214084e-12
5.2238807491e-05
-2.78538029636e-12
5.22388074345e-05
-2.85516858026e-12
5.22388073659e-05
-2.92612816034e-12
5.22388072899e-05
-3.04807420189e-12
5.22388072134e-05
-3.22104033177e-12
5.22388071447e-05
-3.41376034992e-12
5.22388071009e-05
-3.61109074899e-12
5.2238807103e-05
-3.81247587805e-12
5.22388071413e-05
-4.01355948413e-12
5.22388071886e-05
-4.19792985574e-12
5.22388072718e-05
-4.35976076027e-12
5.22388074519e-05
-4.53725891439e-12
5.22388077438e-05
-4.78329952242e-12
5.22388081182e-05
-5.11073201178e-12
5.22388085342e-05
-5.4983868719e-12
5.22388090023e-05
-5.93670461268e-12
5.22388096146e-05
-6.45700465046e-12
5.2238810416e-05
-7.0991652942e-12
5.22388113858e-05
-7.88559023984e-12
5.22388125675e-05
-8.8563568203e-12
5.22388140378e-05
-1.00533689724e-11
5.22388159084e-05
-1.15063950929e-11
5.22388182875e-05
-1.33015324351e-11
5.22388211586e-05
-1.55082915076e-11
5.22388246274e-05
-1.81577173962e-11
5.2238829039e-05
-2.14011755251e-11
5.22388346251e-05
-2.54531449837e-11
5.22388415552e-05
-3.04241213266e-11
5.22388501425e-05
-3.6465351668e-11
5.22388608207e-05
-4.3913967673e-11
5.22388741063e-05
-5.3162593297e-11
5.22388906245e-05
-6.45716260655e-11
5.22389111152e-05
-7.86626754539e-11
5.22389364755e-05
-9.616749898e-11
5.22389678879e-05
-1.17816685943e-10
5.22390069571e-05
-1.44483768175e-10
5.22390555115e-05
-1.77546304153e-10
5.22391154432e-05
-2.18639686749e-10
5.22391892855e-05
-2.69494534378e-10
5.2239280704e-05
-3.32390954452e-10
5.22393940712e-05
-4.10369265879e-10
5.22395343914e-05
-5.06948983447e-10
5.22397080302e-05
-6.26273325588e-10
5.22399229159e-05
-7.73901430655e-10
5.22401887845e-05
-9.56746505152e-10
5.22405178366e-05
-1.1832571351e-09
5.2240925214e-05
-1.46378854839e-09
5.22414295143e-05
-1.81108046109e-09
5.22420538768e-05
-2.24091122532e-09
5.22428268649e-05
-2.77319766626e-09
5.22437838549e-05
-3.43266274717e-09
5.22449684556e-05
-4.24976629067e-09
5.22464346307e-05
-5.26195315305e-09
5.22482497687e-05
-6.51561348639e-09
5.22504971429e-05
-8.06850163076e-09
5.22532795661e-05
-9.99194759461e-09
5.22567247399e-05
-1.23743734889e-08
5.22609906284e-05
-1.53256389153e-08
5.22662729498e-05
-1.89818484921e-08
5.22728147686e-05
-2.3512102752e-08
5.22809167296e-05
-2.91265748165e-08
5.22909514499e-05
-3.60861865605e-08
5.23033816109e-05
-4.4715716692e-08
5.23187811445e-05
-5.5419929607e-08
5.23378621907e-05
-6.87035279198e-08
5.23615092214e-05
-8.51970957792e-08
5.23908220619e-05
-1.05690643478e-07
5.2427168732e-05
-1.31176674816e-07
5.24722532545e-05
-1.62905889421e-07
5.25282012e-05
-2.02461457429e-07
5.25976677254e-05
-2.51858537728e-07
5.2683976874e-05
-3.13678897807e-07
5.27912995747e-05
-3.91257007701e-07
5.29248852585e-05
-4.88944000689e-07
5.30913571946e-05
-6.12490703186e-07
5.32990933012e-05
-7.69617038483e-07
5.3558705588e-05
-9.70888350572e-07
5.38835939354e-05
-1.23110134796e-06
5.42904714713e-05
-1.57153044725e-06
5.47994780131e-05