/*--------------------------------*- C++ -*----------------------------------*\
| =========                 |                                                 |
| \\      /  F ield         | OpenFOAM: The Open Source CFD Toolbox           |
|  \\    /   O peration     | Version:  2106                                  |
|   \\  /    A nd           | Website:  www.openfoam.com                      |
|    \\/     M anipulation  |                                                 |
\*---------------------------------------------------------------------------*/
FoamFile
{
    version     2.0;
    format      ascii;
    arch        "LSB;label=32;scalar=64";
    class       volVectorField;
    location    "0.175";
    object      U;
}
// * * * * * * * * * * * * * * * * * * * * * * * * * * * * * * * * * * * * * //

dimensions      [0 1 -1 0 0 0 0];

internalField   nonuniform List<vector> 
11200
(
(0.662462405644 0.150569442112 0)
(0.55894868081 0.103243387808 0)
(0.383850751664 0.0513512234469 0)
(0.283747616638 0.0248708544476 0)
(0.232075298367 0.0124170444382 0)
(0.201908621471 0.00662281607322 0)
(0.183197973696 0.00380291375084 0)
(0.171276534903 0.00231586956916 0)
(0.163510357644 0.00146450632004 0)
(0.158388825257 0.000944892523061 0)
(0.155006689983 0.00061517733409 0)
(0.152786737228 0.000402234505326 0)
(0.151346588106 0.000264233055426 0)
(0.15042835096 0.000175251006066 0)
(0.149856745687 0.000118361463576 0)
(0.149512542828 8.21606427145e-05 0)
(0.149314980586 5.88663997214e-05 0)
(0.149209616974 4.33159694974e-05 0)
(0.149159755415 3.29344480483e-05 0)
(0.149142512833 2.81864793268e-05 0)
(0.149144665192 2.76846837769e-05 0)
(0.149156936041 2.98905099896e-05 0)
(0.149172551659 3.3051014447e-05 0)
(0.14918809228 3.59666475904e-05 0)
(0.149202293753 3.86021261245e-05 0)
(0.149214556579 4.10411397153e-05 0)
(0.149224713382 4.33183498563e-05 0)
(0.149232871109 4.54649201955e-05 0)
(0.149239266347 4.75200910449e-05 0)
(0.14924418085 4.95307910397e-05 0)
(0.149247899414 5.15586900911e-05 0)
(0.149250689587 5.36945196552e-05 0)
(0.149252748306 5.60222002722e-05 0)
(0.149254245643 5.84032801131e-05 0)
(0.149255315019 6.07643305339e-05 0)
(0.149256043262 6.30856667158e-05 0)
(0.149256526467 6.53775062116e-05 0)
(0.149256848013 6.76523777226e-05 0)
(0.14925706164 6.99219941875e-05 0)
(0.149257195912 7.21926966926e-05 0)
(0.149257270999 7.44655602462e-05 0)
(0.149257303767 7.67415709245e-05 0)
(0.149257306144 7.90204010706e-05 0)
(0.149257286831 8.13007970803e-05 0)
(0.14925725225 8.35809096926e-05 0)
(0.149257207465 8.58583080337e-05 0)
(0.149257157181 8.81301662458e-05 0)
(0.149257106082 9.03934873515e-05 0)
(0.149257058776 9.26453059432e-05 0)
(0.14925702012 9.48825853048e-05 0)
(0.149256996348 9.71022307131e-05 0)
(0.149256996248 9.93013893114e-05 0)
(0.149257032092 0.000101477433412 0)
(0.149257121064 0.000103627380552 0)
(0.149257287749 0.000105747100807 0)
(0.149257567874 0.000107830890887 0)
(0.149258012219 0.000109871727122 0)
(0.149258693802 0.000111860217123 0)
(0.149259720677 0.000113782998347 0)
(0.149261250804 0.0001156159312 0)
(0.149263524659 0.000117305900452 0)
(0.149266948715 0.000118765117156 0)
(0.149272002912 0.000120027314371 0)
(0.149279329154 0.000121279138219 0)
(0.149289954563 0.00012297539676 0)
(0.149305400239 0.000125337174404 0)
(0.149328051187 0.000128121518905 0)
(0.149361611737 0.000131093997918 0)
(0.149411690985 0.000134034457727 0)
(0.149486544556 0.000136828172777 0)
(0.14959814767 0.000140762232904 0)
(0.149769425833 0.000151690970309 0)
(0.150038262664 0.000172499369936 0)
(0.150467965804 0.000202861178516 0)
(0.151194632064 0.000232930577951 0)
(0.152496605976 0.000192100751108 0)
(0.155031391568 -0.00021772876749 0)
(0.162397213289 -0.00211863105514 0)
(0.187785000507 -0.0108341768746 0)
(0.204692936509 -0.0499190051206 0)
(0.965408255942 0.289214705405 0)
(0.961962864329 0.252656038029 0)
(0.823574398737 0.159021439189 0)
(0.69813937745 0.0959957287624 0)
(0.610225473649 0.0582481119021 0)
(0.548971502082 0.0362148512115 0)
(0.506588899202 0.0231612835571 0)
(0.477567278934 0.015137514308 0)
(0.457745501243 0.0100177547969 0)
(0.44422846958 0.0066581415515 0)
(0.435053306494 0.00441555730923 0)
(0.428873124514 0.00290686734256 0)
(0.424754205834 0.00189106012765 0)
(0.422046652736 0.00121004702217 0)
(0.420297811984 0.000757164912499 0)
(0.419193199213 0.000459257111289 0)
(0.418515590749 0.000265855743341 0)
(0.418116441127 0.000142400291004 0)
(0.417895836048 6.6109856893e-05 0)
(0.417786784332 2.3092775766e-05 0)
(0.417745369325 1.40798605929e-06 0)
(0.41774209227 -1.01628724216e-05 0)
(0.417756691016 -1.37147630085e-05 0)
(0.417778651306 -1.32690039142e-05 0)
(0.417802948266 -1.08377594631e-05 0)
(0.417826323072 -7.49573373239e-06 0)
(0.417847082758 -3.88040530575e-06 0)
(0.417864628758 -3.61797928828e-07 0)
(0.417878964781 2.85868820894e-06 0)
(0.417890405636 5.67738722208e-06 0)
(0.417899422565 8.03045727718e-06 0)
(0.4179065103 9.83398500881e-06 0)
(0.417911870433 1.1003707332e-05 0)
(0.41791573517 1.18557118234e-05 0)
(0.417918483194 1.26747519466e-05 0)
(0.417920389769 1.34298708175e-05 0)
(0.417921695383 1.41032338071e-05 0)
(0.417922591095 1.47177609088e-05 0)
(0.417923204188 1.53028732661e-05 0)
(0.417923605837 1.58727967711e-05 0)
(0.417923847966 1.64275004285e-05 0)
(0.417923973689 1.697193103e-05 0)
(0.417924013309 1.75096390305e-05 0)
(0.417923988927 1.80436504893e-05 0)
(0.417923916515 1.8576879756e-05 0)
(0.417923808071 1.9111575247e-05 0)
(0.417923674177 1.96498243874e-05 0)
(0.417923525538 2.01940113985e-05 0)
(0.417923373441 2.07467812954e-05 0)
(0.417923230911 2.13094917354e-05 0)
(0.417923115552 2.18823674596e-05 0)
(0.417923051984 2.24657968501e-05 0)
(0.417923073432 2.30601265835e-05 0)
(0.417923224766 2.366506592e-05 0)
(0.417923568721 2.42793963619e-05 0)
(0.417924195844 2.49011873332e-05 0)
(0.417925235425 2.55282945899e-05 0)
(0.417926874334 2.61510744712e-05 0)
(0.417929385286 2.6749964862e-05 0)
(0.417933156649 2.72947391595e-05 0)
(0.417938774122 2.77422881804e-05 0)
(0.417947325757 2.8027043461e-05 0)
(0.417960317129 2.83022098134e-05 0)
(0.417979877673 2.78918876965e-05 0)
(0.418008802606 2.5371871283e-05 0)
(0.41805070233 1.95952442293e-05 0)
(0.418111733777 9.75695359582e-06 0)
(0.418202042345 -5.67251990763e-06 0)
(0.418337287327 -2.92265527239e-05 0)
(0.418542464034 -6.46054614336e-05 0)
(0.418859646749 -0.000116027355076 0)
(0.419358719373 -0.000188500770436 0)
(0.42015364654 -0.000308878415513 0)
(0.421449007732 -0.000534952786904 0)
(0.42363819051 -0.00100407757428 0)
(0.427443460551 -0.00209951829057 0)
(0.434294559487 -0.00487775145232 0)
(0.448383517264 -0.0123100840957 0)
(0.474903557668 -0.0344026729909 0)
(0.478716744918 -0.09929345877 0)
(1.02222096667 0.238416185665 0)
(1.08213753364 0.295926649837 0)
(1.03447723191 0.239503062974 0)
(0.954615415939 0.174290160906 0)
(0.879992063248 0.121345465051 0)
(0.81861444371 0.0830993811457 0)
(0.771410859273 0.0567316647311 0)
(0.736634400426 0.0387409669315 0)
(0.711624444024 0.0264327862219 0)
(0.693916634343 0.0179731046753 0)
(0.681541426732 0.0121424485379 0)
(0.673000135931 0.0081249091717 0)
(0.66718067173 0.00536632222071 0)
(0.663271701805 0.00348444596193 0)
(0.66068852998 0.00221256266102 0)
(0.659014204698 0.00136338289618 0)
(0.657954522838 0.000805244785014 0)
(0.657304229303 0.000445917483065 0)
(0.656921810749 0.000221069224146 0)
(0.656710245772 8.55812264406e-05 0)
(0.656603382409 8.35708248043e-06 0)
(0.656561834688 -3.37217343224e-05 0)
(0.656557935584 -5.68581509123e-05 0)
(0.656571413037 -6.68794582839e-05 0)
(0.656592945506 -6.84893915719e-05 0)
(0.656616769906 -6.55707090106e-05 0)
(0.65663957933 -6.05626485401e-05 0)
(0.656659767126 -5.48758706621e-05 0)
(0.656676748123 -4.92949246986e-05 0)
(0.656690500142 -4.42267404485e-05 0)
(0.656701269356 -3.98657944802e-05 0)
(0.656709437926 -3.63300781568e-05 0)
(0.656715700133 -3.37270344683e-05 0)
(0.656720746444 -3.18906578943e-05 0)
(0.656724624776 -3.08434717731e-05 0)
(0.656727350923 -3.03364678829e-05 0)
(0.656729230973 -3.02763524177e-05 0)
(0.656730544184 -3.05845330771e-05 0)
(0.656731460148 -3.11101231992e-05 0)
(0.65673206785 -3.17686307708e-05 0)
(0.656732440437 -3.253153571e-05 0)
(0.656732643246 -3.33638844618e-05 0)
(0.656732721059 -3.42411630739e-05 0)
(0.656732707452 -3.51444964386e-05 0)
(0.656732626807 -3.60586102784e-05 0)
(0.656732497439 -3.69727722821e-05 0)
(0.656732335565 -3.78793880148e-05 0)
(0.656732157198 -3.87728118311e-05 0)
(0.65673197784 -3.96475811782e-05 0)
(0.656731814689 -4.04988816078e-05 0)
(0.656731692344 -4.13219889787e-05 0)
(0.656731645988 -4.21124279509e-05 0)
(0.656731723472 -4.2868326102e-05 0)
(0.656731990614 -4.35919692979e-05 0)
(0.656732540647 -4.42940061163e-05 0)
(0.656733508122 -4.50023500179e-05 0)
(0.656735079941 -4.57692031812e-05 0)
(0.656737522986 -4.66871286004e-05 0)
(0.656741236836 -4.78890891965e-05 0)
(0.65674681913 -4.95857835762e-05 0)
(0.656755172179 -5.22567088857e-05 0)
(0.656767930151 -5.69764845345e-05 0)
(0.656786502874 -6.45056681148e-05 0)
(0.656812318809 -7.57646612191e-05 0)
(0.656849100735 -9.24057518642e-05 0)
(0.656903568401 -0.000116870000776 0)
(0.65698517792 -0.000152366255636 0)
(0.657107760758 -0.0002042016227 0)
(0.657293204754 -0.000280944948019 0)
(0.657577048809 -0.000396558971562 0)
(0.65801768953 -0.000575544752805 0)
(0.658704781393 -0.000865429288134 0)
(0.659786203701 -0.00135675496781 0)
(0.66152099825 -0.00222354071608 0)
(0.664354066245 -0.0038301993215 0)
(0.668986248372 -0.00697975251702 0)
(0.676452669709 -0.0134210146549 0)
(0.688777219929 -0.026989963846 0)
(0.705545430968 -0.0566484255189 0)
(0.701016774166 -0.113848108979 0)
(1.02251475569 0.170807151381 0)
(1.10138976067 0.276496475889 0)
(1.11752426565 0.266664795913 0)
(1.09214661074 0.219901695532 0)
(1.05187816136 0.168168844318 0)
(1.0102082291 0.123567393714 0)
(0.973494694533 0.0888375191169 0)
(0.943864558879 0.0630063698639 0)
(0.921142801901 0.0442232032459 0)
(0.904284074794 0.0307423926373 0)
(0.892074870766 0.0211562945789 0)
(0.883404512416 0.0143954693465 0)
(0.877352671932 0.00966794920939 0)
(0.87319770825 0.00639383822759 0)
(0.870392930514 0.0041511657852 0)
(0.868534040714 0.00263449168895 0)
(0.867327642985 0.0016240178759 0)
(0.866564239423 0.000962676045243 0)
(0.86609648219 0.000539121800367 0)
(0.865822240713 0.000275151953632 0)
(0.865671398162 0.00011706536005 0)
(0.865595149069 2.87874935013e-05 0)
(0.865564093259 -1.93321484175e-05 0)
(0.865561288368 -4.12716508081e-05 0)
(0.865572636594 -4.76792365352e-05 0)
(0.865589649039 -4.55422798665e-05 0)
(0.865607967057 -3.91764880824e-05 0)
(0.865625316708 -3.11692596699e-05 0)
(0.86564061403 -2.29916720378e-05 0)
(0.865653491758 -1.54114024472e-05 0)
(0.865663981192 -8.75718576155e-06 0)
(0.865672285496 -3.08165454375e-06 0)
(0.865678657503 1.69563961604e-06 0)
(0.865683305986 5.4288436894e-06 0)
(0.865686645733 8.00259914657e-06 0)
(0.86568906636 9.76399628942e-06 0)
(0.865690717772 1.11145898944e-05 0)
(0.865691892813 1.22591323459e-05 0)
(0.865692775068 1.32268527012e-05 0)
(0.865693381055 1.41158321401e-05 0)
(0.865693756562 1.49148855172e-05 0)
(0.865693966635 1.5646347308e-05 0)
(0.86569404963 1.63257287978e-05 0)
(0.865694036577 1.6969000965e-05 0)
(0.865693949591 1.7590685314e-05 0)
(0.865693804476 1.82012031435e-05 0)
(0.865693616009 1.88087262699e-05 0)
(0.865693401036 1.94212808395e-05 0)
(0.865693178439 2.0049985759e-05 0)
(0.865692970508 2.06953502153e-05 0)
(0.865692807586 2.13463628915e-05 0)
(0.865692729959 2.19926330664e-05 0)
(0.865692790513 2.26185668819e-05 0)
(0.865693059199 2.3198714158e-05 0)
(0.865693627934 2.36943661931e-05 0)
(0.865694625229 2.40576966388e-05 0)
(0.865696230441 2.42528491797e-05 0)
(0.865698715291 2.41877347994e-05 0)
(0.865702480505 2.36939767994e-05 0)
(0.865707968672 2.23908290845e-05 0)
(0.865715556177 1.96689440978e-05 0)
(0.86572686467 1.49134971145e-05 0)
(0.865744517637 6.29308019014e-06 0)
(0.865771469307 -7.90751618724e-06 0)
(0.865811632381 -2.96870812297e-05 0)
(0.865870901358 -6.29613416387e-05 0)
(0.865958614449 -0.000114639978349 0)
(0.866089310651 -0.000195546674173 0)
(0.866285608915 -0.000323042988107 0)
(0.866582471585 -0.00052577698151 0)
(0.867033778165 -0.0008529914417 0)
(0.867725076072 -0.00139212162412 0)
(0.868793563176 -0.00229284408104 0)
(0.870454003047 -0.00383144939559 0)
(0.873027909303 -0.00653546986092 0)
(0.876918617772 -0.0114209315382 0)
(0.882455605413 -0.0203706181372 0)
(0.889831569791 -0.036683456331 0)
(0.89661022347 -0.065947292759 0)
(0.886905588031 -0.110936313694 0)
(1.01287875185 0.118961023021 0)
(1.08820671024 0.231806934973 0)
(1.13741367383 0.253106762158 0)
(1.15409086985 0.228992751104 0)
(1.14994211071 0.188368356683 0)
(1.13538465531 0.146579842248 0)
(1.11758894749 0.110150964445 0)
(1.1005950008 0.0808162214215 0)
(1.08612456981 0.0582265763372 0)
(1.07459092331 0.0413189854619 0)
(1.06579146586 0.0289160210599 0)
(1.05928798829 0.0199601010176 0)
(1.05459976292 0.013581561191 0)
(1.05129076419 0.00909744420697 0)
(1.04899984557 0.00598615489781 0)
(1.0474434016 0.00385696722824 0)
(1.04640652761 0.00242159853427 0)
(1.04573061217 0.00147015032673 0)
(1.04530105704 0.000851701402533 0)
(1.04503656044 0.000459014564751 0)
(1.04488019861 0.000216753185991 0)
(1.04479258329 7.30115408472e-05 0)
(1.04474871939 -5.51328741618e-06 0)
(1.04473182194 -4.40214294581e-05 0)
(1.04472957443 -5.94027972693e-05 0)
(1.04473506307 -6.17408060698e-05 0)
(1.04474401734 -5.72715392018e-05 0)
(1.04475390937 -4.98336994466e-05 0)
(1.04476335948 -4.16780798159e-05 0)
(1.04477169751 -3.40255263494e-05 0)
(1.04477867294 -2.74622073614e-05 0)
(1.04478427272 -2.21915072048e-05 0)
(1.04478864234 -1.81684482566e-05 0)
(1.04479199254 -1.51806256925e-05 0)
(1.044794576 -1.28525332538e-05 0)
(1.04479668222 -1.10592298503e-05 0)
(1.04479842987 -9.57859639643e-06 0)
(1.04479976574 -8.29084866301e-06 0)
(1.04480075776 -7.26506057629e-06 0)
(1.04480145675 -6.58630514265e-06 0)
(1.04480187975 -6.19876313182e-06 0)
(1.04480211554 -5.98208219506e-06 0)
(1.04480220929 -5.88512654859e-06 0)
(1.04480219905 -5.85984253883e-06 0)
(1.04480210983 -5.86528433296e-06 0)
(1.04480195958 -5.88097527558e-06 0)
(1.04480176694 -5.89748375639e-06 0)
(1.04480155486 -5.91294983722e-06 0)
(1.04480133764 -5.93596278557e-06 0)
(1.04480112079 -5.965260998e-06 0)
(1.04480092825 -5.98770594252e-06 0)
(1.04480080256 -6.00315416391e-06 0)
(1.04480079523 -6.01805239793e-06 0)
(1.04480097572 -6.0460674205e-06 0)
(1.04480145082 -6.1176322244e-06 0)
(1.04480240343 -6.31503858416e-06 0)
(1.04480404983 -6.86654642564e-06 0)
(1.04480664676 -8.10147588618e-06 0)
(1.04481050097 -1.04805737726e-05 0)
(1.04481606116 -1.42547656635e-05 0)
(1.04482434984 -1.92235478146e-05 0)
(1.04483653699 -2.53747186137e-05 0)
(1.04485383314 -3.50259314772e-05 0)
(1.04487853701 -5.11548989696e-05 0)
(1.04491412431 -7.80300501301e-05 0)
(1.04496573596 -0.00012193835565 0)
(1.04504097899 -0.000192704159787 0)
(1.04515121332 -0.000305984055296 0)
(1.04531361827 -0.000487083879493 0)
(1.04555414335 -0.000777275696753 0)
(1.04591166373 -0.00124430613371 0)
(1.04644437251 -0.00200051908542 0)
(1.04723696739 -0.00323774456309 0)
(1.04840342735 -0.00528908908648 0)
(1.05007276688 -0.00873562907751 0)
(1.05230420954 -0.0145789576132 0)
(1.05485698549 -0.0244407397352 0)
(1.05694392448 -0.0406575485192 0)
(1.05585560902 -0.0661143066463 0)
(1.04226761126 -0.100383003905 0)
(1.00447483532 0.0814039977251 0)
(1.06917237511 0.181288537616 0)
(1.13080568887 0.216950416794 0)
(1.17375000594 0.210789153521 0)
(1.19865265387 0.183690074997 0)
(1.21019988175 0.149751681731 0)
(1.21350255899 0.116779142881 0)
(1.21251724205 0.0882206770565 0)
(1.20973098495 0.0650481504921 0)
(1.20651119874 0.0470209087936 0)
(1.20351913625 0.0334068086356 0)
(1.20101145556 0.0233557327133 0)
(1.19903445507 0.0160720139956 0)
(1.19753878309 0.0108795138358 0)
(1.19644131769 0.0072341881477 0)
(1.19565558802 0.00471351853235 0)
(1.19510489147 0.00299762902596 0)
(1.19472647806 0.00184916046469 0)
(1.19447149689 0.00109495931328 0)
(1.19430318641 0.000610608924583 0)
(1.19419454672 0.000307982022406 0)
(1.19412626134 0.000125761035914 0)
(1.19408521045 2.22118828261e-05 0)
(1.19406195053 -3.24676359927e-05 0)
(1.1940496495 -5.72909565783e-05 0)
(1.19404415056 -6.46217152571e-05 0)
(1.19404265318 -6.24050866686e-05 0)
(1.19404333894 -5.55558070738e-05 0)
(1.19404509209 -4.69840841776e-05 0)
(1.19404725416 -3.83033815159e-05 0)
(1.19404945257 -3.03149279434e-05 0)
(1.19405149495 -2.33239068282e-05 0)
(1.19405331171 -1.73538019746e-05 0)
(1.19405489716 -1.23305339234e-05 0)
(1.19405626768 -8.14711074962e-06 0)
(1.19405744266 -4.74694960299e-06 0)
(1.19405839754 -2.1289317253e-06 0)
(1.19405908125 -2.30140173561e-07 0)
(1.19405944792 1.10119354697e-06 0)
(1.19405956528 1.96345948516e-06 0)
(1.19405961862 2.6468041426e-06 0)
(1.19405964945 3.25682613509e-06 0)
(1.19405962865 3.79408291755e-06 0)
(1.19405957262 4.26705371228e-06 0)
(1.19405947826 4.68609204565e-06 0)
(1.19405933531 5.06723667692e-06 0)
(1.19405914381 5.42203009836e-06 0)
(1.19405890712 5.75166798533e-06 0)
(1.19405864489 6.04334568794e-06 0)
(1.19405839949 6.29831486225e-06 0)
(1.19405820471 6.53682915543e-06 0)
(1.19405809105 6.74937283501e-06 0)
(1.19405810881 6.90983903964e-06 0)
(1.19405832134 6.97864743936e-06 0)
(1.19405878409 6.89894726213e-06 0)
(1.19405949359 6.58832588682e-06 0)
(1.19406046646 5.89502326134e-06 0)
(1.19406183663 4.50864946965e-06 0)
(1.19406413846 1.87978030444e-06 0)
(1.19406846295 -2.20464110858e-06 0)
(1.19407557214 -8.50722469427e-06 0)
(1.19408531006 -1.84517015539e-05 0)
(1.19409832701 -3.4038649401e-05 0)
(1.19411659368 -5.81727375584e-05 0)
(1.19414224216 -9.54480494499e-05 0)
(1.19417807101 -0.00015320395866 0)
(1.19422805099 -0.000243142930268 0)
(1.19429779266 -0.000383830702282 0)
(1.1943951527 -0.000604894067251 0)
(1.19453089616 -0.000953969162234 0)
(1.19471912543 -0.00150809164758 0)
(1.19497668915 -0.00239233842467 0)
(1.19531850532 -0.00381144119603 0)
(1.19574206919 -0.00610096632948 0)
(1.19618736995 -0.00980432910538 0)
(1.1964348208 -0.015773317153 0)
(1.19589675674 -0.0252325760004 0)
(1.19341475303 -0.039660572557 0)
(1.18664161991 -0.0603353649941 0)
(1.17002697273 -0.0859936058301 0)
(0.998962326239 0.0544316260495 0)
(1.0531095701 0.133401606917 0)
(1.116282684 0.170777556813 0)
(1.17301272141 0.175143870495 0)
(1.21791246433 0.159583604923 0)
(1.25049858052 0.134951018931 0)
(1.27288491276 0.108411656031 0)
(1.28776722264 0.0838849714407 0)
(1.29745268166 0.0630565723548 0)
(1.30366075273 0.0462999217213 0)
(1.30759234657 0.0333205153689 0)
(1.31005370515 0.0235495246565 0)
(1.31157362971 0.0163599083869 0)
(1.31249493288 0.0111713157031 0)
(1.31303862625 0.00749150714532 0)
(1.31334671827 0.00492448613514 0)
(1.31351013277 0.00316295506575 0)
(1.31358676346 0.0019747509909 0)
(1.3136131406 0.00118819484602 0)
(1.3136119917 0.000678625499134 0)
(1.31359715424 0.000357002272147 0)
(1.31357683267 0.000160744869488 0)
(1.31355583727 4.64562781606e-05 0)
(1.31353654063 -1.58866457912e-05 0)
(1.31351988133 -4.6079572987e-05 0)
(1.31350619091 -5.70944900173e-05 0)
(1.31349528475 -5.73543526268e-05 0)
(1.31348682573 -5.21211304673e-05 0)
(1.31348042554 -4.45640929695e-05 0)
(1.31347569878 -3.65074362827e-05 0)
(1.31347229425 -2.89239687652e-05 0)
(1.3134699089 -2.22669216582e-05 0)
(1.31346828348 -1.66873223088e-05 0)
(1.31346719021 -1.21917347054e-05 0)
(1.31346646352 -8.71376492706e-06 0)
(1.313466006 -6.15141735985e-06 0)
(1.31346571792 -4.36810617568e-06 0)
(1.31346550871 -3.1608008737e-06 0)
(1.31346536891 -2.30229201641e-06 0)
(1.31346538794 -1.58461340312e-06 0)
(1.31346553647 -9.99234293077e-07 0)
(1.31346563378 -5.75444789019e-07 0)
(1.31346562542 -2.06074922841e-07 0)
(1.31346554132 1.42277440095e-07 0)
(1.31346540273 4.67627677379e-07 0)
(1.3134652229 7.78083866275e-07 0)
(1.31346500526 1.08636003159e-06 0)
(1.31346475137 1.40602742905e-06 0)
(1.31346447521 1.7520528866e-06 0)
(1.31346420913 2.11352626361e-06 0)
(1.3134639689 2.44469559891e-06 0)
(1.31346376198 2.711752633e-06 0)
(1.31346361893 2.87218667818e-06 0)
(1.31346358924 2.86340791392e-06 0)
(1.31346375176 2.59718628628e-06 0)
(1.31346422294 1.96753728534e-06 0)
(1.31346505214 8.93666862383e-07 0)
(1.31346619411 -7.71462875269e-07 0)
(1.31346806704 -3.17579150556e-06 0)
(1.31347099056 -6.99644124301e-06 0)
(1.31347507699 -1.35789835574e-05 0)
(1.31348057047 -2.4548942557e-05 0)
(1.3134877198 -4.14884258122e-05 0)
(1.31349698889 -6.75469799236e-05 0)
(1.31350867566 -0.000107760258763 0)
(1.31352282265 -0.000169898276995 0)
(1.31353901118 -0.000266100992316 0)
(1.31355587022 -0.000415387742764 0)
(1.31357010254 -0.000647733035814 0)
(1.31357466188 -0.0010106597659 0)
(1.31355540216 -0.00157971039582 0)
(1.31348464995 -0.00247461126415 0)
(1.31330769677 -0.0038840672832 0)
(1.31291632152 -0.00610293296089 0)
(1.31209940946 -0.00957985186294 0)
(1.31044945494 -0.014963305543 0)
(1.30720883087 -0.023092893455 0)
(1.30115947033 -0.0348266212924 0)
(1.29041681026 -0.0506270487449 0)
(1.27147626069 -0.0692984096819 0)
(0.995736074801 0.0346338610308 0)
(1.0417951463 0.0905689208784 0)
(1.10222839122 0.121549564012 0)
(1.1649141221 0.129605832996 0)
(1.22202567024 0.122009267475 0)
(1.26951892812 0.106019937673 0)
(1.30680224654 0.0870975556483 0)
(1.33499536355 0.0686366811314 0)
(1.35574478637 0.0523698394265 0)
(1.37069618148 0.0389256185546 0)
(1.38128277123 0.0282980740408 0)
(1.38866269476 0.0201712777575 0)
(1.39373035234 0.0141175108793 0)
(1.3971566273 0.00970533638038 0)
(1.39943436946 0.00655059552862 0)
(1.40091969183 0.00433445478343 0)
(1.40186623859 0.00280414481136 0)
(1.4024522595 0.00176574254469 0)
(1.40280135727 0.00107419371451 0)
(1.40299805373 0.000623232267884 0)
(1.4030992738 0.000336404550947 0)
(1.40314272498 0.000159616009468 0)
(1.40315298222 5.51541931747e-05 0)
(1.40314548951 -3.01111854594e-06 0)
(1.40312972545 -3.21397112073e-05 0)
(1.40311131743 -4.39115211605e-05 0)
(1.40309327299 -4.57860821021e-05 0)
(1.40307711658 -4.2448520794e-05 0)
(1.40306344959 -3.67623045976e-05 0)
(1.4030523457 -3.04040379514e-05 0)
(1.4030436031 -2.42880161412e-05 0)
(1.40303689646 -1.8861086614e-05 0)
(1.40303186484 -1.42914724227e-05 0)
(1.40302815879 -1.0581360024e-05 0)
(1.40302548061 -7.63005572778e-06 0)
(1.40302359781 -5.31242212615e-06 0)
(1.40302233355 -3.50574973802e-06 0)
(1.4030215383 -2.0678291169e-06 0)
(1.40302104798 -8.91700127973e-07 0)
(1.40302066986 4.83569593213e-08 0)
(1.40302033127 7.69584227238e-07 0)
(1.40302011057 1.27212312871e-06 0)
(1.40302000108 1.65547578863e-06 0)
(1.40301991184 1.98616654028e-06 0)
(1.40301980626 2.30347603526e-06 0)
(1.40301967683 2.62664788106e-06 0)
(1.40301952197 2.96578683004e-06 0)
(1.4030193428 3.32644713955e-06 0)
(1.40301913731 3.7107211857e-06 0)
(1.40301889781 4.10382266721e-06 0)
(1.40301863812 4.466642227e-06 0)
(1.40301839068 4.77048309779e-06 0)
(1.40301818241 4.97861508647e-06 0)
(1.40301804008 5.03541480231e-06 0)
(1.40301798533 4.85618849954e-06 0)
(1.40301802143 4.30436164404e-06 0)
(1.40301812983 3.17771052578e-06 0)
(1.40301838122 1.31361788456e-06 0)
(1.40301887939 -1.53523958708e-06 0)
(1.40301974043 -6.27914038237e-06 0)
(1.40302097282 -1.36818530461e-05 0)
(1.40302221379 -2.50571712485e-05 0)
(1.40302293551 -4.22428821964e-05 0)
(1.40302236312 -6.82079557166e-05 0)
(1.40301897484 -0.000107537489902 0)
(1.40300997099 -0.000167274593752 0)
(1.40299049835 -0.000258351477642 0)
(1.40295227772 -0.000397645475179 0)
(1.40288116851 -0.000611333566774 0)
(1.40275316413 -0.00094028150186 0)
(1.40252804002 -0.00144834224537 0)
(1.40213889931 -0.00223430815324 0)
(1.40147306702 -0.00344849537946 0)
(1.4003406937 -0.00531669343938 0)
(1.39842603766 -0.00816502568647 0)
(1.3952117441 -0.0124336877489 0)
(1.38987756761 -0.0186421271591 0)
(1.38126333531 -0.0272406963011 0)
(1.36785278204 -0.0383282774102 0)
(1.34722045322 -0.0510324812334 0)
(0.994011532039 0.019235807719 0)
(1.03484763839 0.0523338402411 0)
(1.09199263067 0.0723631265907 0)
(1.15662420472 0.0791292309737 0)
(1.22032116944 0.0761045453683 0)
(1.27701945987 0.0673339707076 0)
(1.32424419746 0.0561509030755 0)
(1.361815746 0.0447990109499 0)
(1.39068531977 0.0345303779102 0)
(1.41226076372 0.0258814330269 0)
(1.42801823686 0.0189465246883 0)
(1.43929885715 0.0135849827915 0)
(1.44722809127 0.00955653490557 0)
(1.45270414769 0.00660011595016 0)
(1.45641897342 0.00447419075547 0)
(1.45889146005 0.00297351399182 0)
(1.46050232586 0.0019327692208 0)
(1.46152572365 0.00122369423258 0)
(1.46215573993 0.000749550637327 0)
(1.4625275644 0.000439017133015 0)
(1.46273384004 0.000240519438832 0)
(1.46283697996 0.000117408752182 0)
(1.46287827825 4.40444435026e-05 0)
(1.46288451092 2.68399925934e-06 0)
(1.4628723783 -1.84540284797e-05 0)
(1.46285201752 -2.74507661642e-05 0)
(1.46282945495 -2.9453588715e-05 0)
(1.46280790328 -2.77066383568e-05 0)
(1.46278889026 -2.42077747551e-05 0)
(1.46277296036 -2.0138104593e-05 0)
(1.46276010487 -1.61461002329e-05 0)
(1.46275002955 -1.25543731172e-05 0)
(1.46274232407 -9.48932187928e-06 0)
(1.46273655689 -6.96168499313e-06 0)
(1.46273232989 -4.91746878862e-06 0)
(1.46272930101 -3.28696407383e-06 0)
(1.46272718246 -2.00653962307e-06 0)
(1.46272571845 -1.03481942629e-06 0)
(1.46272469393 -3.28060745182e-07 0)
(1.46272404627 2.02337305051e-07 0)
(1.46272366629 6.89658687796e-07 0)
(1.46272340108 1.1744891439e-06 0)
(1.46272321779 1.61140485408e-06 0)
(1.46272307808 2.00530433745e-06 0)
(1.46272295238 2.37734779283e-06 0)
(1.46272282158 2.74168598888e-06 0)
(1.46272267188 3.10444922309e-06 0)
(1.46272249395 3.46402873982e-06 0)
(1.46272228233 3.81178707538e-06 0)
(1.46272203388 4.13855494729e-06 0)
(1.46272175144 4.43715169013e-06 0)
(1.46272144202 4.67659253347e-06 0)
(1.46272111179 4.80821469829e-06 0)
(1.46272076841 4.76421097826e-06 0)
(1.4627204219 4.45468777445e-06 0)
(1.46272008964 3.76659699549e-06 0)
(1.46271979076 2.58094917699e-06 0)
(1.46271942203 8.02367724481e-07 0)
(1.46271876513 -1.8739785663e-06 0)
(1.46271768636 -6.18280746395e-06 0)
(1.46271593699 -1.29279322904e-05 0)
(1.46271283619 -2.32239267737e-05 0)
(1.46270724368 -3.86008074947e-05 0)
(1.46269732263 -6.14228049754e-05 0)
(1.4626799689 -9.52709307457e-05 0)
(1.46264995347 -0.000145531870104 0)
(1.46259873725 -0.000220454446472 0)
(1.46251245749 -0.000332400862993 0)
(1.46236834846 -0.000500027341286 0)
(1.46212910605 -0.000751952617841 0)
(1.46173460163 -0.00113256953038 0)
(1.46108945954 -0.00170900089112 0)
(1.46004083035 -0.00257805104052 0)
(1.45834563619 -0.00388066545576 0)
(1.45562653409 -0.00581126330724 0)
(1.45131247298 -0.00861625687806 0)
(1.44457397397 -0.0125609027493 0)
(1.43432768843 -0.0178330468816 0)
(1.41929194962 -0.0243906996087 0)
(1.39758700536 -0.0316989094342 0)
(0.993269668046 0.00617015212904 0)
(1.03158100249 0.0171020462267 0)
(1.08672182188 0.0239906481051 0)
(1.15174554943 0.0265606651556 0)
(1.21823536884 0.0258180582856 0)
(1.27925774833 0.0230488857557 0)
(1.33140136758 0.0193656313378 0)
(1.37377599657 0.015546858145 0)
(1.40691054487 0.0120449306756 0)
(1.43203314696 0.00906640039045 0)
(1.45060216321 0.00666059551413 0)
(1.46402987323 0.00479009230338 0)
(1.47355017675 0.00337842924686 0)
(1.48017565099 0.002338739261 0)
(1.48470230615 0.00158891541884 0)
(1.48773622441 0.00105829081172 0)
(1.48972736402 0.000689465052947 0)
(1.49100279578 0.000437640995449 0)
(1.4917958771 0.000268888509511 0)
(1.49227024814 0.000158113894452 0)
(1.49253873934 8.71273114893e-05 0)
(1.49267781357 4.29772100112e-05 0)
(1.49273834305 1.65865944256e-05 0)
(1.49275351089 1.66487121051e-06 0)
(1.49274426576 -6.06827431205e-06 0)
(1.49272346727 -9.41414306863e-06 0)
(1.49269881028 -1.02211517308e-05 0)
(1.49267452256 -9.65888558207e-06 0)
(1.4926527015 -8.44601233316e-06 0)
(1.49263418866 -7.00050626939e-06 0)
(1.49261910682 -5.56259810987e-06 0)
(1.49260719397 -4.252212656e-06 0)
(1.49259802108 -3.11653673629e-06 0)
(1.49259111334 -2.16143508802e-06 0)
(1.49258601739 -1.37047071353e-06 0)
(1.49258233333 -7.21719102533e-07 0)
(1.49257972543 -1.93682750509e-07 0)
(1.49257792374 2.35142163965e-07 0)
(1.49257672447 6.09866948124e-07 0)
(1.49257595029 9.86680121781e-07 0)
(1.49257544639 1.30028575939e-06 0)
(1.49257512129 1.59341884985e-06 0)
(1.49257491766 1.88468004985e-06 0)
(1.49257478341 2.18460720479e-06 0)
(1.49257467946 2.50109597627e-06 0)
(1.49257457937 2.8376781052e-06 0)
(1.49257446417 3.19424133474e-06 0)
(1.49257431971 3.56720292638e-06 0)
(1.49257413515 3.94890501137e-06 0)
(1.49257390134 4.32651110735e-06 0)
(1.49257361238 4.68110742952e-06 0)
(1.49257326444 4.98195815996e-06 0)
(1.49257285108 5.18606003361e-06 0)
(1.49257236138 5.23439092409e-06 0)
(1.49257177469 5.0464993737e-06 0)
(1.49257106204 4.51015990618e-06 0)
(1.49257020568 3.47201417548e-06 0)
(1.49256909857 1.75352371527e-06 0)
(1.49256727989 -7.84356149117e-07 0)
(1.49256441657 -4.53115141051e-06 0)
(1.49256015287 -1.02648264064e-05 0)
(1.49255345981 -1.87338811753e-05 0)
(1.49254270171 -3.09706199869e-05 0)
(1.49252530983 -4.85034927531e-05 0)
(1.49249713152 -7.3476397719e-05 0)
(1.49245133888 -0.000108860089551 0)
(1.49237709183 -0.000159150700498 0)
(1.49225725205 -0.000230517475103 0)
(1.49206401141 -0.000331481589846 0)
(1.49175198647 -0.000474962325348 0)
(1.49124928096 -0.000682468969876 0)
(1.49044632364 -0.000984685791047 0)
(1.48917107702 -0.00141515751702 0)
(1.48715546846 -0.00202221527458 0)
(1.48399723865 -0.00286776635162 0)
(1.47911015885 -0.00402016333322 0)
(1.47167728432 -0.0055351216495 0)
(1.46066964999 -0.00741631211257 0)
(1.44491674783 -0.00957260794079 0)
(1.42277450284 -0.0117586095985 0)
(0.993270465884 -0.00616839985446 0)
(1.03158098513 -0.0171003755633 0)
(1.08672175563 -0.0239897621635 0)
(1.15174558717 -0.0265602477082 0)
(1.21823544677 -0.0258179939476 0)
(1.27925785041 -0.0230491108631 0)