/*--------------------------------*- C++ -*----------------------------------*\
| =========                 |                                                 |
| \\      /  F ield         | OpenFOAM: The Open Source CFD Toolbox           |
|  \\    /   O peration     | Version:  2106                                  |
|   \\  /    A nd           | Website:  www.openfoam.com                      |
|    \\/     M anipulation  |                                                 |
\*---------------------------------------------------------------------------*/
FoamFile
{
    version     2.0;
    format      ascii;
    arch        "LSB;label=32;scalar=64";
    class       volVectorField;
    location    "0.26";
    object      U;
}
// * * * * * * * * * * * * * * * * * * * * * * * * * * * * * * * * * * * * * //

dimensions      [0 1 -1 0 0 0 0];

internalField   nonuniform List<vector> 
11200
(
(0.662462406853 0.150569440875 0)
(0.558948687409 0.103243387118 0)
(0.383850766363 0.05135122305 0)
(0.283747638662 0.0248708540608 0)
(0.232075328096 0.0124170439399 0)
(0.201908659504 0.0066228154661 0)
(0.18319802048 0.00380291299281 0)
(0.171276590572 0.00231586859253 0)
(0.163510422212 0.00146450505562 0)
(0.158388898881 0.000944890910425 0)
(0.155006772994 0.000615175380701 0)
(0.152786830185 0.000402232289098 0)
(0.15134669169 0.000264230692994 0)
(0.150428465791 0.000175248588469 0)
(0.149856872215 0.000118359055342 0)
(0.149512681244 8.21582996939e-05 0)
(0.149315130686 5.88640956696e-05 0)
(0.149209778232 4.33136623553e-05 0)
(0.149159927133 3.29320727207e-05 0)
(0.149142694579 2.81842485864e-05 0)
(0.149144856763 2.76823899289e-05 0)
(0.149157137182 2.9888295557e-05 0)
(0.149172762309 3.30488005737e-05 0)
(0.149188312483 3.59644955913e-05 0)
(0.14920252326 3.86000963786e-05 0)
(0.149214794678 4.10392597056e-05 0)
(0.149224959076 4.33166346829e-05 0)
(0.149233123316 4.54633565416e-05 0)
(0.149239523989 4.75186957348e-05 0)
(0.149244442992 4.95296743079e-05 0)
(0.149248165292 5.1558284133e-05 0)
(0.149250958344 5.36954985512e-05 0)
(0.149253019225 5.60241276695e-05 0)
(0.149254518085 5.84056049675e-05 0)
(0.149255587518 6.07667072088e-05 0)
(0.149256314038 6.30878641962e-05 0)
(0.149256794558 6.53793695533e-05 0)
(0.149257112801 6.76541209831e-05 0)
(0.149257322472 6.99236438793e-05 0)
(0.149257452762 7.21940926871e-05 0)
(0.149257524671 7.44666311017e-05 0)
(0.14925755557 7.67422395166e-05 0)
(0.149257557675 7.90205823306e-05 0)
(0.149257539743 8.1300499157e-05 0)
(0.149257507956 8.35802815032e-05 0)
(0.149257466861 8.58576333462e-05 0)
(0.149257420403 8.81297508079e-05 0)
(0.149257372532 9.03935660841e-05 0)
(0.14925732761 9.26459549881e-05 0)
(0.149257290648 9.4883906307e-05 0)
(0.14925726835 9.71043205776e-05 0)
(0.149257270264 9.93042855862e-05 0)
(0.149257309498 0.000101480839198 0)
(0.149257404151 0.000103630613166 0)
(0.14925757971 0.000105749304234 0)
(0.149257872485 0.00010783125721 0)
(0.149258333175 0.000109869619431 0)
(0.149259036162 0.000111854506949 0)
(0.149260090885 0.000113773270075 0)
(0.149261655449 0.000115601439022 0)
(0.14926397446 0.000117283773638 0)
(0.149267456184 0.000118734673588 0)
(0.149272572723 0.000119993252753 0)
(0.149279969337 0.000121250624502 0)
(0.149290677229 0.000122966659124 0)
(0.149306216584 0.000125335420822 0)
(0.149328971975 0.000128116418777 0)
(0.149362639165 0.000131081075872 0)
(0.149412811744 0.000134012750769 0)
(0.149487722181 0.000136796793109 0)
(0.149599313236 0.000140707492088 0)
(0.14977041975 0.000151566010162 0)
(0.150038826317 0.000172307419532 0)
(0.150467722753 0.000202583682297 0)
(0.151192954922 0.000232535850939 0)
(0.152492287576 0.000191720624716 0)
(0.155022120617 -0.000216956959534 0)
(0.162377485951 -0.00211146180477 0)
(0.18771479641 -0.0107952502545 0)
(0.204406856373 -0.0496952645275 0)
(0.965408258171 0.289214704208 0)
(0.961962874131 0.252656037832 0)
(0.823574419289 0.159021439482 0)
(0.698139408015 0.0959957290376 0)
(0.610225514435 0.0582481118958 0)
(0.548971553375 0.0362148508615 0)
(0.506588960977 0.0231612827436 0)
(0.477567350842 0.0151375128887 0)
(0.457745582833 0.0100177527091 0)
(0.444228560642 0.00665813874447 0)
(0.435053407154 0.00441555383757 0)
(0.428873235216 0.00290686336854 0)
(0.424754327129 0.00189105584076 0)
(0.422046785133 0.00121004260148 0)
(0.420297955855 0.000757160530074 0)
(0.4191933546 0.00045925284391 0)
(0.418515757254 0.000265851520529 0)
(0.418116618006 0.000142396073144 0)
(0.417896022503 6.6105627509e-05 0)
(0.417786979559 2.30888308658e-05 0)
(0.417745572774 1.40424969733e-06 0)
(0.417742303301 -1.01666003158e-05 0)
(0.417756909026 -1.3718042041e-05 0)
(0.41777887595 -1.32714123148e-05 0)
(0.41780317869 -1.08391261515e-05 0)
(0.417826557862 -7.49602959787e-06 0)
(0.417847320102 -3.87964598497e-06 0)
(0.417864866701 -3.60041141919e-07 0)
(0.417879201477 2.86133330007e-06 0)
(0.417890639733 5.68059354513e-06 0)
(0.417899653231 8.03347455742e-06 0)
(0.417906735576 9.83571727912e-06 0)
(0.417912088651 1.10048361095e-05 0)
(0.417915946122 1.18574689449e-05 0)
(0.417918685825 1.26793302811e-05 0)
(0.417920582804 1.3436180009e-05 0)
(0.417921879351 1.41101467763e-05 0)
(0.417922766773 1.47253381818e-05 0)
(0.417923371327 1.53107462351e-05 0)
(0.417923764701 1.58799787913e-05 0)
(0.417923999631 1.64334590148e-05 0)
(0.417924119519 1.69762940236e-05 0)
(0.41792415511 1.75121220376e-05 0)
(0.417924128908 1.80443032496e-05 0)
(0.417924057082 1.85760188012e-05 0)
(0.417923951608 1.91096362524e-05 0)
(0.417923822765 1.96471158893e-05 0)
(0.417923680936 2.01903939815e-05 0)
(0.417923537656 2.07416105715e-05 0)
(0.417923406221 2.1302648757e-05 0)
(0.417923304321 2.1873569687e-05 0)
(0.417923256618 2.24545028398e-05 0)
(0.417923296552 2.30454153441e-05 0)
(0.417923470057 2.36458527489e-05 0)
(0.417923841699 2.42548528365e-05 0)
(0.417924504067 2.4871315725e-05 0)
(0.417925587516 2.54941121872e-05 0)
(0.417927283644 2.6110975015e-05 0)
(0.41792986986 2.67039681695e-05 0)
(0.417933735076 2.72428177903e-05 0)
(0.417939475303 2.76806912148e-05 0)
(0.417948187241 2.7961543816e-05 0)
(0.417961364219 2.82456148488e-05 0)
(0.417981139107 2.78065059349e-05 0)
(0.418010284625 2.52294263087e-05 0)
(0.418052406511 1.94226048892e-05 0)
(0.418113679331 9.58159084998e-06 0)
(0.418204221712 -5.82363778303e-06 0)
(0.418339638681 -2.93173675958e-05 0)
(0.418544831483 -6.45833146191e-05 0)
(0.418861711771 -0.000115820456151 0)
(0.419359917796 -0.000188009431539 0)
(0.420152984274 -0.000307848996338 0)
(0.421444687728 -0.000532956408776 0)
(0.423626926751 -0.0010002474308 0)
(0.427418918704 -0.00209166760714 0)
(0.434243935593 -0.00485950836621 0)
(0.448279466092 -0.0122624571801 0)
(0.474679257635 -0.0342658615583 0)
(0.478243517826 -0.0988459896268 0)
(1.02222096934 0.238416185692 0)
(1.08213754435 0.295926650835 0)
(1.03447725364 0.23950306442 0)
(0.954615448077 0.174290162343 0)
(0.879992105938 0.12134546622 0)
(0.818614497081 0.0830993818743 0)
(0.771410923077 0.0567316648543 0)
(0.736634474135 0.0387409662781 0)
(0.711624527006 0.0264327847536 0)
(0.693916726195 0.0179731024355 0)
(0.681541527439 0.012142445681 0)
(0.673000245778 0.00812490587357 0)
(0.667180791141 0.00536631861926 0)
(0.6632718312 0.00348444222388 0)
(0.660688669589 0.00221255894068 0)
(0.659014354376 0.00136337920676 0)
(0.657954682114 0.000805241144967 0)
(0.657304397407 0.000445913919865 0)
(0.656921986795 0.000221065913005 0)
(0.656710428839 8.55783229604e-05 0)
(0.656603571426 8.35489704005e-06 0)
(0.656562029066 -3.37230325663e-05 0)
(0.656558135016 -5.68576110056e-05 0)
(0.656571616597 -6.68766877838e-05 0)
(0.656593151786 -6.84841147474e-05 0)
(0.656616977062 -6.55627341538e-05 0)
(0.656639785148 -6.05518344912e-05 0)
(0.656659969205 -5.48620674351e-05 0)
(0.656676943956 -4.92779226442e-05 0)
(0.656690687245 -4.42063717029e-05 0)
(0.656701445599 -3.98422109299e-05 0)
(0.656709603009 -3.63037919909e-05 0)
(0.656715855236 -3.36973940366e-05 0)
(0.656720892718 -3.18585689812e-05 0)
(0.656724759065 -3.08118845092e-05 0)
(0.6567274694 -3.03047669407e-05 0)
(0.656729335296 -3.02491123211e-05 0)
(0.65673063628 -3.05599369677e-05 0)
(0.656731539837 -3.10874606017e-05 0)
(0.656732135798 -3.17492180717e-05 0)
(0.65673249848 -3.25157051693e-05 0)
(0.656732693234 -3.33518242792e-05 0)
(0.656732765278 -3.42330113305e-05 0)
(0.656732748642 -3.51399666345e-05 0)
(0.656732667858 -3.6057257773e-05 0)
(0.656732541255 -3.69741538393e-05 0)
(0.65673238483 -3.78830973713e-05 0)
(0.656732214452 -3.87785552199e-05 0)
(0.656732046926 -3.96557078209e-05 0)
(0.656731900081 -4.05092515986e-05 0)
(0.656731798134 -4.13355692211e-05 0)
(0.656731776382 -4.21306069891e-05 0)
(0.656731883204 -4.28925539144e-05 0)
(0.656732186 -4.36242765285e-05 0)
(0.656732780662 -4.43384701437e-05 0)
(0.656733804749 -4.50659459812e-05 0)
(0.656735444761 -4.58593614446e-05 0)
(0.656737974171 -4.68145006923e-05 0)
(0.656741801212 -4.80576884906e-05 0)
(0.656747524179 -4.98032028899e-05 0)
(0.656756064061 -5.25512105361e-05 0)
(0.656769067348 -5.73398827483e-05 0)
(0.656787878151 -6.49441726474e-05 0)
(0.656813930965 -7.62460180433e-05 0)
(0.656851032622 -9.29274284733e-05 0)
(0.65690589113 -0.000117397119761 0)
(0.656987901245 -0.000152855291089 0)
(0.65711085494 -0.000204589445912 0)
(0.657296570644 -0.000281125309023 0)
(0.657580454204 -0.000396349879048 0)
(0.658020664938 -0.000574634047807 0)
(0.658706459898 -0.000863279870997 0)
(0.659785002657 -0.00135243687324 0)
(0.661514039764 -0.00221536240028 0)
(0.664336135146 -0.00381488574759 0)
(0.668947790714 -0.0069504404656 0)
(0.676376252748 -0.0133621684578 0)
(0.688631735956 -0.0268647506676 0)
(0.705277102722 -0.0563676284597 0)
(0.700561535768 -0.113194874483 0)
(1.02251475846 0.170807151697 0)
(1.10138977159 0.276496477144 0)
(1.11752428758 0.26666479761 0)
(1.09214664306 0.219901697206 0)
(1.05187820416 0.168168845713 0)
(1.01020828246 0.12356739462 0)
(0.973494758163 0.0888375193818 0)
(0.943864632208 0.0630063693382 0)
(0.921142884306 0.0442232018809 0)
(0.904284165851 0.0307423905398 0)
(0.892074970361 0.0211562919606 0)
(0.883404620704 0.0143954664034 0)
(0.877352789249 0.00966794609272 0)
(0.87319783495 0.00639383508315 0)
(0.870393066706 0.00415116267315 0)
(0.868534186201 0.00263448860944 0)
(0.867327797245 0.00162401490597 0)
(0.86656440166 0.000962673294372 0)
(0.866096651498 0.000539119513259 0)
(0.865822416187 0.0002751503906 0)
(0.865671579065 0.000117065002808 0)
(0.865595335051 2.87892312125e-05 0)
(0.865564283644 -1.93277718754e-05 0)
(0.865561482074 -4.12640640643e-05 0)
(0.865572832406 -4.76681226885e-05 0)
(0.865589845206 -4.55274287047e-05 0)
(0.865608161494 -3.9157799508e-05 0)
(0.865625507287 -3.11467576605e-05 0)
(0.865640798692 -2.29654313278e-05 0)
(0.865653668678 -1.53814871304e-05 0)
(0.865664148882 -8.72361688493e-06 0)
(0.865672442658 -3.0445827693e-06 0)
(0.865678802233 1.73422444291e-06 0)
(0.865683435451 5.46569557566e-06 0)
(0.865686760095 8.03308006041e-06 0)
(0.865689163264 9.79027967906e-06 0)
(0.865690799672 1.11438360938e-05 0)
(0.865691965538 1.22886866555e-05 0)
(0.865692836747 1.32574926234e-05 0)
(0.865693431811 1.41439045711e-05 0)
(0.865693798818 1.4939097474e-05 0)
(0.865694002248 1.56657425026e-05 0)
(0.86569408102 1.63394346472e-05 0)
(0.865694066578 1.69767239239e-05 0)
(0.865693981041 1.75922457023e-05 0)
(0.865693840441 1.81963026663e-05 0)
(0.865693659743 1.87966433585e-05 0)
(0.865693455534 1.94000867703e-05 0)
(0.865693248071 2.00155393372e-05 0)
(0.86569305999 2.06495004283e-05 0)
(0.865692921407 2.12882469266e-05 0)
(0.865692873597 2.19195371262e-05 0)
(0.865692969638 2.25269508435e-05 0)
(0.865693279261 2.30844242561e-05 0)
(0.865693894957 2.35538386628e-05 0)
(0.865694949646 2.38944145023e-05 0)
(0.865696624745 2.40804793803e-05 0)
(0.865699205321 2.3989549243e-05 0)
(0.865703099541 2.34680153015e-05 0)
(0.865708731921 2.21133260083e-05 0)
(0.865716526913 1.93444407054e-05 0)
(0.865728119402 1.4503151111e-05 0)
(0.865746118586 5.74483787421e-06 0)
(0.865773471954 -8.55609089988e-06 0)
(0.865814060726 -3.03942074309e-05 0)
(0.865873795208 -6.37096470428e-05 0)
(0.865962006368 -0.000115380208598 0)
(0.866093201749 -0.000196174243337 0)
(0.866289930265 -0.000323362993382 0)
(0.866587018388 -0.000525442525832 0)
(0.86703809369 -0.000851398076782 0)
(0.867728272549 -0.00138823248083 0)
(0.868794000753 -0.00228484645007 0)
(0.870448715312 -0.00381607099346 0)
(0.873011639451 -0.00650663329326 0)
(0.876882250659 -0.0113669092919 0)
(0.882383978576 -0.0202679641127 0)
(0.889701303063 -0.0364845489989 0)
(0.896390357207 -0.0655565729577 0)
(0.886578762747 -0.110171308567 0)
(1.01287875463 0.118961023196 0)
(1.08820672117 0.231806936187 0)
(1.13741369575 0.253106763854 0)
(1.15409090208 0.228992752796 0)
(1.14994215334 0.1883683581 0)
(1.13538470842 0.146579843196 0)
(1.11758901079 0.110150964795 0)
(1.10059507371 0.0808162210666 0)
(1.08612465175 0.0582265752375 0)
(1.07459101391 0.0413189837144 0)
(1.06579156496 0.0289160188453 0)
(1.05928809597 0.0199600985438 0)
(1.05459987945 0.0135815586557 0)
(1.05129088981 0.00909744175044 0)
(1.04899998031 0.00598615251077 0)
(1.04744354523 0.00385696494829 0)
(1.04640667968 0.00242159641293 0)
(1.04573077198 0.00147014854543 0)
(1.04530122378 0.000851700274887 0)
(1.04503673343 0.000459014599963 0)
(1.04488037743 0.000216755102883 0)
(1.04479276765 7.30161418444e-05 0)
(1.04474890901 -5.50551703694e-06 0)
(1.04473201614 -4.40096735002e-05 0)
(1.04472977201 -5.93867165686e-05 0)
(1.04473526257 -6.17202135637e-05 0)
(1.04474421705 -5.7246433701e-05 0)
(1.04475410747 -4.98043379052e-05 0)
(1.04476355417 -4.1644985065e-05 0)
(1.044771887 -3.3989346414e-05 0)
(1.04477885562 -2.74237545431e-05 0)
(1.04478444724 -2.2151705764e-05 0)
(1.0447888078 -1.812816353e-05 0)
(1.04479214838 -1.51392785211e-05 0)
(1.04479472377 -1.28079300588e-05 0)
(1.04479682734 -1.10115609321e-05 0)
(1.04479857049 -9.52266348882e-06 0)
(1.04479989872 -8.23301609127e-06 0)
(1.04480088204 -7.21400688257e-06 0)
(1.04480157141 -6.54521733159e-06 0)
(1.04480198853 -6.1657221979e-06 0)
(1.0448022203 -5.95699700152e-06 0)
(1.04480231239 -5.86854084579e-06 0)
(1.04480230323 -5.85047363542e-06 0)
(1.04480221747 -5.86265625093e-06 0)
(1.04480207287 -5.88533807937e-06 0)
(1.0448018873 -5.90895723341e-06 0)
(1.04480168242 -5.93005453803e-06 0)
(1.04480148033 -5.95385633247e-06 0)
(1.04480128702 -5.98844501893e-06 0)
(1.04480112047 -6.0180597177e-06 0)
(1.044801025 -6.04125816746e-06 0)
(1.04480105389 -6.06453581147e-06 0)
(1.04480127966 -6.10225138985e-06 0)
(1.04480181842 -6.18923629036e-06 0)
(1.04480286487 -6.42771715913e-06 0)
(1.04480460468 -7.08715673391e-06 0)
(1.04480730736 -8.44511233167e-06 0)
(1.04481129522 -1.09861971178e-05 0)
(1.04481703241 -1.48016065046e-05 0)
(1.04482554693 -1.9754352609e-05 0)
(1.04483798675 -2.59464730458e-05 0)
(1.04485560425 -3.56913498836e-05 0)
(1.04488071287 -5.19647663079e-05 0)
(1.0449167811 -7.89925759404e-05 0)
(1.04496895284 -0.000123025684277 0)
(1.04504482588 -0.00019384012712 0)
(1.04515574144 -0.000307022122427 0)
(1.04531883849 -0.000487751770701 0)
(1.04555997698 -0.000777083334353 0)
(1.04591784713 -0.00124239274794 0)
(1.04645033011 -0.00199541375513 0)
(1.04724159232 -0.00322686799965 0)
(1.04840468809 -0.00526786963994 0)
(1.0500671295 -0.00869587469507 0)
(1.05228590059 -0.0145057585655 0)
(1.05481744027 -0.024306663896 0)
(1.05687254052 -0.0404123717908 0)
(1.05574506002 -0.065668867988 0)
(1.04213426368 -0.0995894856928 0)
(1.0044748381 0.0814039977277 0)
(1.06917238601 0.181288538801 0)
(1.13080571068 0.216950418502 0)
(1.17375003802 0.210789155231 0)
(1.19865269632 0.183690076433 0)
(1.21019993465 0.149751682749 0)
(1.21350262206 0.116779143357 0)
(1.21251731475 0.0882206769218 0)
(1.2097310667 0.065048149752 0)
(1.20651128919 0.0470209075214 0)
(1.20351923525 0.0334068069855 0)
(1.20101156317 0.0233557308706 0)
(1.1990345715 0.0160720121491 0)
(1.19753890845 0.0108795120514 0)
(1.19644145197 0.00723418644899 0)
(1.19565573103 0.00471351698214 0)
(1.19510504279 0.00299762772022 0)
(1.19472663714 0.00184915958375 0)
(1.19447166325 0.00109495924522 0)
(1.19430335977 0.000610610313996 0)
(1.19419472702 0.000307985676828 0)
(1.19412644865 0.000125767809997 0)
(1.19408540489 2.22226119434e-05 0)
(1.1940621518 -3.24523218358e-05 0)
(1.194049857 -5.72708070885e-05 0)
(1.19404436359 -6.45963318766e-05 0)
(1.19404287077 -6.23742643878e-05 0)
(1.1940435601 -5.5519505623e-05 0)
(1.19404531596 -4.694240844e-05 0)
(1.19404748008 -3.82564010032e-05 0)
(1.19404968013 -3.02625935894e-05 0)
(1.19405172396 -2.32659512814e-05 0)
(1.1940535424 -1.72899937857e-05 0)
(1.19405512982 -1.22611463379e-05 0)
(1.19405650244 -8.07296178121e-06 0)
(1.19405767946 -4.67140022154e-06 0)
(1.19405863327 -2.06017966803e-06 0)
(1.19405931046 -1.70654442623e-07 0)
(1.1940596705 1.14684790389e-06 0)
(1.19405978926 2.00307352974e-06 0)
(1.19405984795 2.68187097631e-06 0)
(1.1940598828 3.2852497181e-06 0)
(1.19405986802 3.8131532501e-06 0)
(1.19405982025 4.27434706174e-06 0)
(1.19405973455 4.68090705817e-06 0)
(1.19405960174 5.04958921439e-06 0)
(1.19405942409 5.39231970399e-06 0)
(1.19405920762 5.71155468169e-06 0)
(1.19405896531 5.99713730942e-06 0)
(1.19405873937 6.23842116105e-06 0)
(1.19405857235 6.45824480867e-06 0)
(1.19405849396 6.64892892876e-06 0)
(1.19405855342 6.78405495361e-06 0)
(1.19405881073 6.82315087804e-06 0)
(1.19405930703 6.70829537991e-06 0)
(1.19406001378 6.35344249142e-06 0)
(1.19406100647 5.5933324168e-06 0)
(1.1940624467 4.07767534475e-06 0)
(1.19406496519 1.35142204634e-06 0)
(1.19406960407 -2.85025888862e-06 0)
(1.19407695576 -9.29913686991e-06 0)
(1.19408693292 -1.93990570551e-05 0)
(1.19410026665 -3.51490674269e-05 0)
(1.19411894577 -5.9462152031e-05 0)
(1.19414509791 -9.69211153484e-05 0)
(1.19418153676 -0.000154842174454 0)
(1.19423224463 -0.000244876835497 0)
(1.1943028448 -0.000385513148251 0)
(1.19440120752 -0.000606228374538 0)
(1.19453809418 -0.000954396977135 0)
(1.19472754488 -0.00150660763985 0)
(1.19498632585 -0.00238725013395 0)
(1.19532923694 -0.00379977295587 0)
(1.19575353487 -0.00607750683609 0)
(1.19619889737 -0.00975998986754 0)
(1.19644557147 -0.0156922453759 0)
(1.19590657329 -0.0250872598351 0)
(1.19342678842 -0.0394041497814 0)
(1.18666937429 -0.0598912784148 0)
(1.17011137977 -0.0852458938929 0)
(0.998962329026 0.0544316258883 0)
(1.05310958097 0.133401608028 0)
(1.11628270568 0.17077755849 0)
(1.1730127533 0.175143872213 0)
(1.21791250659 0.159583606411 0)
(1.25049863324 0.134951020059 0)
(1.27288497566 0.108411656686 0)
(1.28776729521 0.0838849715826 0)
(1.29745276335 0.0630565720174 0)
(1.30366084318 0.0462999209938 0)
(1.30759244566 0.0333205143824 0)
(1.3100538129 0.0235495235495 0)
(1.3115737462 0.0163599072915 0)
(1.31249505819 0.0111713146499 0)
(1.31303876038 0.00749150615586 0)
(1.31334686106 0.00492448523604 0)
(1.31351028388 0.00316295437621 0)
(1.31358692258 0.00197475075305 0)
(1.31361330761 0.00118819549468 0)
(1.3136121667 0.000678627655551 0)
(1.31359733762 0.000357006687862 0)
(1.31357702498 0.000160752360343 0)
(1.31355603912 4.64676629705e-05 0)
(1.31353675212 -1.58706291808e-05 0)
(1.31352010263 -4.60588577056e-05 0)
(1.31350642235 -5.70685726172e-05 0)
(1.31349552631 -5.73230127237e-05 0)
(1.31348707743 -5.20842606049e-05 0)
(1.31348068747 -4.45216903496e-05 0)
(1.31347597121 -3.64596824319e-05 0)
(1.31347257765 -2.88713035399e-05 0)
(1.31347020369 -2.22100653073e-05 0)
(1.31346858967 -1.66273748996e-05 0)
(1.31346750732 -1.2130676545e-05 0)
(1.3134667912 -8.65420187448e-06 0)
(1.31346634385 -6.09641930219e-06 0)
(1.31346606405 -4.32020608657e-06 0)
(1.31346586236 -3.11809937887e-06 0)
(1.31346573633 -2.26044578831e-06 0)
(1.31346577177 -1.54301235533e-06 0)
(1.31346593074 -9.66792144022e-07 0)
(1.31346603506 -5.53091657011e-07 0)
(1.31346603374 -1.92288536651e-07 0)
(1.31346595893 1.44763859273e-07 0)
(1.31346583216 4.56395401896e-07 0)
(1.31346566562 7.51344076853e-07 0)
(1.31346546256 1.04173042367e-06 0)
(1.31346522532 1.33874524735e-06 0)
(1.31346496527 1.65410302003e-06 0)
(1.31346471594 1.98641192133e-06 0)
(1.31346449817 2.28660851564e-06 0)
(1.31346431922 2.51757115947e-06 0)
(1.31346420945 2.63544241787e-06 0)
(1.31346422084 2.57636548987e-06 0)
(1.31346443948 2.25285626952e-06 0)
(1.31346498404 1.57188530276e-06 0)
(1.31346584496 4.86690199063e-07 0)
(1.31346707359 -1.19956191307e-06 0)
(1.31346909782 -3.67106065176e-06 0)
(1.31347216557 -7.65538497104e-06 0)
(1.31347645511 -1.44503939641e-05 0)
(1.31348220054 -2.56436193228e-05 0)
(1.31348966938 -4.28193368468e-05 0)
(1.31349934449 -6.9143174673e-05 0)
(1.31351154038 -0.00010964280903 0)
(1.31352633087 -0.000172063479924 0)
(1.31354332608 -0.000268492735332 0)
(1.31356120374 -0.000417888770043 0)
(1.31357675144 -0.000650079651742 0)
(1.31358303187 -0.00101232248154 0)
(1.31356597443 -0.00157969351837 0)
(1.3134981043 -0.00247130769235 0)
(1.31332510779 -0.00387460147035 0)
(1.31293930883 -0.00608227953333 0)
(1.31213055382 -0.00953940214449 0)
(1.31049320112 -0.0148884722731 0)
(1.30727334942 -0.0229593541502 0)
(1.30126031389 -0.0345949512686 0)
(1.29058419493 -0.0502363702088 0)
(1.27176881113 -0.0686618098694 0)
(0.995736077567 0.0346338606916 0)
(1.0417951571 0.090568921832 0)
(1.10222841278 0.121549565563 0)
(1.16491415382 0.129605834653 0)
(1.22202571228 0.122009269009 0)
(1.26951898061 0.106019938931 0)
(1.30680230922 0.0870975565306 0)
(1.33499543597 0.0686366816041 0)
(1.35574486801 0.0523698395328 0)
(1.37069627199 0.0389256184147 0)
(1.38128287042 0.028298073753 0)
(1.38866280261 0.0201712774003 0)
(1.39373046892 0.0141175104817 0)
(1.39715675259 0.00970533599332 0)
(1.39943450344 0.00655059515754 0)
(1.40091983441 0.00433445440932 0)
(1.40186638961 0.00280414452243 0)
(1.4024524189 0.00176574259268 0)
(1.40280152521 0.00107419450024 0)
(1.4029982307 0.000623234318091 0)
(1.40309946054 0.000336408487143 0)
(1.40314292248 0.000159622471064 0)
(1.40315319165 5.51636906794e-05 0)
(1.40314571136 -2.99836072004e-06 0)
(1.40312996065 -3.21224800259e-05 0)
(1.40311156734 -4.38896588842e-05 0)
(1.40309353847 -4.57595983014e-05 0)
(1.4030773986 -4.24173787775e-05 0)
(1.40306374926 -3.67264522374e-05 0)
(1.40305266412 -3.03635848904e-05 0)
(1.40304394143 -2.42434150658e-05 0)
(1.40303725578 -1.88131012891e-05 0)
(1.40303224584 -1.42410997922e-05 0)
(1.40302856165 -1.05294391925e-05 0)
(1.40302590524 -7.57748397958e-06 0)
(1.40302404434 -5.26041044132e-06 0)
(1.4030228024 -3.45541791851e-06 0)
(1.40302202882 -2.0188293687e-06 0)
(1.403021558 -8.46002380568e-07 0)
(1.40302119485 8.65061402441e-08 0)
(1.403020872 7.96381606733e-07 0)
(1.40302067186 1.28659727387e-06 0)
(1.40302058117 1.65928400349e-06 0)
(1.40302050761 1.9801750003e-06 0)
(1.4030204167 2.28662131246e-06 0)
(1.40302030149 2.59686473436e-06 0)
(1.40302016045 2.92027392352e-06 0)
(1.40301999559 3.2617238012e-06 0)
(1.40301980764 3.62229096078e-06 0)
(1.40301958925 3.99106398192e-06 0)
(1.40301935268 4.32697718753e-06 0)
(1.40301913146 4.59913731225e-06 0)
(1.4030189533 4.76958603276e-06 0)
(1.40301884363 4.78111115163e-06 0)
(1.40301882136 4.54595742947e-06 0)
(1.40301889044 3.92154559532e-06 0)
(1.40301904011 2.70305561024e-06 0)
(1.40301931133 7.70787325612e-07 0)
(1.40301990296 -2.24331421226e-06 0)
(1.40302095262 -7.16238638216e-06 0)
(1.40302236987 -1.47719809006e-05 0)
(1.40302382008 -2.63875849656e-05 0)
(1.40302481241 -4.38537684633e-05 0)
(1.40302459636 -7.01484143671e-05 0)
(1.40302167669 -0.00010985681529 0)
(1.40301330185 -0.000170003583645 0)
(1.40299465548 -0.000261469044682 0)
(1.40295753896 -0.00040111728305 0)
(1.40288797583 -0.000615007535535 0)
(1.40276219034 -0.000943780376494 0)
(1.40254012665 -0.00145084421968 0)
(1.40215535171 -0.00223463551456 0)
(1.40149611436 -0.00344437270079 0)
(1.40037381844 -0.00530408618726 0)
(1.39847479397 -0.00813707259822 0)
(1.39528523369 -0.0123789378224 0)
(1.38999095981 -0.0185419326772 0)
(1.38144202182 -0.0270657498498 0)
(1.36813936716 -0.0380348940591 0)
(1.34768600236 -0.0505604798577 0)
(0.994011534761 0.0192358071577 0)
(1.0348476491 0.0523338410134 0)
(1.09199265209 0.0723631279908 0)
(1.15662423628 0.0791292325349 0)
(1.22032121128 0.0761045469246 0)
(1.27701951209 0.0673339721231 0)
(1.32424425988 0.0561509042695 0)
(1.36181581823 0.0447990118677 0)
(1.39068540136 0.0345303785757 0)
(1.41226085428 0.0258814335304 0)
(1.42801833613 0.0189465250969 0)
(1.43929896503 0.0135849831629 0)
(1.44722820779 0.00955653521424 0)
(1.45270427289 0.00660011618217 0)
(1.45641910722 0.0044741909 0)
(1.45889160239 0.00297351401737 0)
(1.46050247676 0.0019327691545 0)
(1.46152588326 0.00122369424437 0)
(1.46215590864 0.000749551014505 0)
(1.46252774291 0.000439018258481 0)
(1.46273402938 0.00024052174032 0)
(1.46283718132 0.000117412665171 0)
(1.46287849287 4.40503175075e-05 0)
(1.46288474073 2.69198517946e-06 0)
(1.46287262495 -1.8443041496e-05 0)
(1.46285228207 -2.74366771e-05 0)
(1.46282973909 -2.94363923791e-05 0)
(1.46280820898 -2.76862852461e-05 0)
(1.46278921948 -2.41841472985e-05 0)
(1.46277331492 -2.01112099623e-05 0)
(1.46276048653 -1.61161460142e-05 0)
(1.46275043996 -1.25217806318e-05 0)
(1.46274276454 -9.454714595e-06 0)
(1.46273702804 -6.92575427794e-06 0)
(1.4627328317 -4.88111647988e-06 0)
(1.46272983313 -3.25149845061e-06 0)
(1.462727744 -1.97383292011e-06 0)
(1.46272630732 -1.00702641972e-06 0)
(1.46272531163 -3.05931619061e-07 0)
(1.46272469218 2.17056362663e-07 0)
(1.46272433531 7.00054680611e-07 0)
(1.46272409196 1.17785038182e-06 0)
(1.4627239298 1.60432672765e-06 0)
(1.46272380928 1.98661508783e-06 0)
(1.46272370097 2.34592361403e-06 0)
(1.46272358575 2.69583929776e-06 0)
(1.46272345013 3.04181454914e-06 0)
(1.46272328558 3.382004696e-06 0)
(1.46272308763 3.70711507428e-06 0)
(1.46272285372 4.00537510684e-06 0)
(1.46272258695 4.2691782045e-06 0)
(1.46272229484 4.46703116259e-06 0)
(1.46272198398 4.54839917291e-06 0)
(1.46272166324 4.4436499064e-06 0)
(1.46272134648 4.06184191615e-06 0)
(1.46272105373 3.29159351698e-06 0)
(1.46272078187 2.0120954573e-06 0)
(1.46272042699 1.29163829342e-07 0)
(1.46271981652 -2.6470162031e-06 0)
(1.46271882731 -7.12948159269e-06 0)
(1.46271720355 -1.41142504796e-05 0)
(1.46271426611 -2.46963210883e-05 0)
(1.46270888666 -4.04138797628e-05 0)
(1.46269925044 -6.36418427425e-05 0)
(1.46268228965 -9.79751050129e-05 0)
(1.46265284609 -0.00014879416943 0)
(1.46260240244 -0.000224293347952 0)
(1.46251719112 -0.000336914491474 0)
(1.46237469162 -0.000505245440138 0)
(1.46213796079 -0.000757731949913 0)
(1.46174702849 -0.00113825303857 0)
(1.46110718173 -0.00171428759888 0)
(1.46006698233 -0.00258171387061 0)
(1.45838508618 -0.00388029984057 0)
(1.45568701185 -0.00580273264647 0)
(1.45140643677 -0.0085926234523 0)
(1.44472151041 -0.0125109057779 0)
(1.43456088702 -0.0177391844427 0)
(1.41966157967 -0.0242272915005 0)
(1.39817232771 -0.0314311354052 0)
(0.993269670735 0.00617015130308 0)
(1.03158101312 0.017102046793 0)
(1.08672184318 0.0239906493498 0)
(1.15174558084 0.0265606666194 0)
(1.2182354105 0.0258180598252 0)
(1.27925780033 0.0230488873369 0)
(1.33140142977 0.0193656328698 0)
(1.37377606861 0.0155468595535 0)
(1.40691062634 0.0120449319444 0)
(1.43203323747 0.00906640153779 0)
(1.45060226247 0.00666059657611 0)
(1.46402998109 0.0047900933244 0)
(1.47355029319 0.0033784302128 0)
(1.48017577601 0.00233874008169 0)
(1.48470243971 0.00158891601676 0)
(1.4877363665 0.00105829109899 0)
(1.48972751472 0.000689465021469 0)
(1.49100295537 0.000437640709317 0)
(1.49179604608 0.000268888098018 0)
(1.49227042734 0.000158113530666 0)
(1.49253892988 8.7127183404e-05 0)
(1.49267801684 4.2977543983e-05 0)
(1.49273856066 1.65877251613e-05 0)
(1.49275374466 1.66731058127e-06 0)
(1.49274451758 -6.06527281589e-06 0)
(1.49272373895 -9.41027770958e-06 0)
(1.49269910385 -1.02161541237e-05 0)
(1.49267484045 -9.65265424258e-06 0)
(1.49265304611 -8.43846864487e-06 0)
(1.49263456225 -6.9915963978e-06 0)
(1.49261951154 -5.55219153276e-06 0)
(1.49260763178 -4.24034477007e-06 0)
(1.49259849345 -3.10351096596e-06 0)
(1.49259162099 -2.14784839553e-06 0)
(1.49258656028 -1.35715392812e-06 0)
(1.49258291108 -7.09663269974e-07 0)
(1.49258033768 -1.83914833409e-07 0)
(1.49257857026 2.42048161422e-07 0)
(1.49257740267 6.14619031957e-07 0)
(1.49257665732 9.84817852003e-07 0)
(1.49257618083 1.29128854103e-06 0)
(1.4925758811 1.57764307159e-06 0)
(1.49257570064 1.8611657872e-06 0)
(1.49257558675 2.15226048478e-06 0)
(1.4925755003 2.4581698717e-06 0)
(1.49257541489 2.78181197738e-06 0)
(1.49257531196 3.12267995001e-06 0)
(1.4925751783 3.47682241572e-06 0)
(1.49257500387 3.83589864508e-06 0)
(1.49257478011 4.18601842047e-06 0)
(1.49257450125 4.50753509717e-06 0)
(1.49257416338 4.76858934616e-06 0)
(1.49257375989 4.92479182988e-06 0)
(1.49257327912 4.91564882939e-06 0)
(1.49257270037 4.65834232646e-06 0)
(1.49257199508 4.03846412095e-06 0)
(1.49257115107 2.90625131146e-06 0)
(1.49257003989 1.13610990465e-06 0)
(1.49256823298 -1.47707356152e-06 0)
(1.49256541644 -5.49425772461e-06 0)
(1.49256121211 -1.15087331957e-05 0)
(1.49255460522 -2.02804272699e-05 0)
(1.49254397125 -3.28865818309e-05 0)
(1.49252675877 -5.08731376868e-05 0)
(1.49249885237 -7.64287817256e-05 0)
(1.49245352469 -0.000112550842736 0)
(1.49237990258 -0.000163641375694 0)
(1.49226093002 -0.000236126294028 0)
(1.49206915656 -0.0003384618232 0)
(1.49175978313 -0.000483289160541 0)
(1.49126065556 -0.000691137366945 0)
(1.49046294696 -0.000994981605081 0)
(1.48919671565 -0.0014273516295 0)
(1.48719569351 -0.0020359554086 0)
(1.48406081666 -0.0028822275955 0)
(1.4792111832 -0.00403375055411 0)
(1.47183824389 -0.00554498391931 0)
(1.46092588242 -0.00741774734693 0)
(1.44532295112 -0.00955846723107 0)
(1.42341403649 -0.0117191670835 0)
(0.993270468542 -0.00616840088013 0)
(1.03158099571 -0.0171003751416 0)
(1.08672177683 -0.0239897610113 0)
(1.15174561844 -0.0265602462507 0)
(1.21823548829 -0.0258179923127 0)
(1.27925790226 -0.0230491090851 0)
(1.33140155571 -0.0193660458288 0)