/*--------------------------------*- C++ -*----------------------------------*\
| =========                 |                                                 |
| \\      /  F ield         | OpenFOAM: The Open Source CFD Toolbox           |
|  \\    /   O peration     | Version:  2106                                  |
|   \\  /    A nd           | Website:  www.openfoam.com                      |
|    \\/     M anipulation  |                                                 |
\*---------------------------------------------------------------------------*/
FoamFile
{
    version     2.0;
    format      ascii;
    arch        "LSB;label=32;scalar=64";
    class       volScalarField;
    location    "0.01";
    object      p;
}
// * * * * * * * * * * * * * * * * * * * * * * * * * * * * * * * * * * * * * //

dimensions      [0 2 -2 0 0 0 0];

internalField   nonuniform List<scalar> 
9600
(
7.16754703776
4.28006146982
3.38995555856
3.01765713064
2.80626950834
2.66617504553
2.5536782733
2.45030266764
2.34955029764
2.24921544373
2.14857595015
2.04745223625
1.94585681722
1.84386072435
1.74154635877
1.63898817112
1.53624847776
1.43337653265
1.3304097295
1.22738029953
1.12430414987
1.02119810104
0.918073329109
0.814937917991
0.711797914939
0.608657734523
0.505520258932
0.402387693916
0.299261947357
0.19614473656
0.0930376877402
-0.010057716568
-0.113140092113
-0.216208044158
-0.31926006938
-0.422294530384
-0.525309705287
-0.628303899171
-0.731275186051
-0.834221437678
-0.937140434456
-1.04002984688
-1.14288708588
-1.24570930574
-1.34849348891
-1.45123638676
-1.55393442705
-1.65658374204
-1.75918023818
-1.8617195525
-1.96419694712
-2.06660728765
-2.16894509362
-2.27120454433
-2.37337941366
-2.47546300757
-2.57744815489
-2.6793272196
-2.78109208582
-2.88273410112
-2.98424400823
-3.08561190774
-3.18682725778
-3.28787887123
-3.38875487277
-3.48944262559
-3.58992867312
-3.69019871975
-3.79023762595
-3.89002937849
-3.9895570305
-4.08880264222
-4.18774724629
-4.28637082613
-4.38465227969
-4.48256936086
-4.58009861242
-4.67721531998
-4.77389348197
-4.87010578122
-4.96582354489
-5.06101669054
-5.15565366743
-5.24970140424
-5.34312526854
-5.43588903738
-5.52795486826
-5.6192832558
-5.70983297227
-5.7995610101
-5.88842255151
-5.97637096685
-6.0633578112
-6.14933278502
-6.23424366305
-6.31803623757
-6.40065431596
-6.4820397556
-6.56213247623
-6.6408704179
-6.71818948448
-6.79402353804
-6.86830445167
-6.94096215624
-7.01192462903
-7.08111785749
-7.14846585122
-7.21389071457
-7.27731271649
-7.33865031077
-7.39782014636
-7.45473713908
-7.50931455223
-7.56146403635
-7.61109566638
-7.65811804722
-7.70243847876
-7.74396301481
-7.78259640067
-7.81824213186
-7.85080268937
-7.88017974191
-7.90627414329
-7.92898583703
-7.94821395616
-7.96385709312
-7.97581344945
-7.983981051
-7.98825779033
-7.98853914499
-7.98472082767
-7.9766979532
-7.96436469888
-7.9476144777
-7.92633977154
-7.90043119984
-7.86977659948
-7.83426078292
-7.79376539774
-7.74816799885
-7.69734021123
-7.64114549881
-7.57943731331
-7.51205754355
-7.438833422
-7.3595721627
-7.27405578742
-7.18203603799
-7.08322446317
-6.97727681988
-6.86377397097
-6.7421921258
-6.61184702357
-6.47178835208
-6.32060210459
-6.15612203161
-5.97504901644
-5.77176782748
-5.54763557211
-5.43266495519
5.24854854264
4.07353495851
3.47098891584
3.12387375754
2.88665684668
2.71694863836
2.58356429786
2.46746846335
2.35937750884
2.25488471615
2.1518841254
2.04940307549
1.94701658677
1.84455327631
1.74196025187
1.63923516847
1.53639492303
1.43346280394
1.33046159477
1.22740723671
1.12431816329
1.02120507122
0.918076532607
0.814938998511
0.711797507761
0.608656077119
0.505517816671
0.402384959274
0.299259086819
0.19614168646
0.0930343553196
-0.0100613586335
-0.113144065812
-0.216212394485
-0.319264802613
-0.422299648701
-0.525315334611
-0.628310095757
-0.731281960453
-0.834228830906
-0.937148548662
-1.04003874535
-1.14289677422
-1.24571981622
-1.34850488546
-1.45124871781
-1.55394773428
-1.6565981115
-1.75919579556
-1.86173640856
-1.964215181
-2.06662698035
-2.16896635103
-2.27122748478
-2.37340415093
-2.47548965309
-2.57747683302
-2.67935807807
-2.78112528892
-2.88276981215
-2.9842823813
-3.08565309984
-3.18687144812
-3.28792626477
-3.38880568351
-3.48949705986
-3.58998693263
-3.69026101949
-3.79030420528
-3.89010049465
-3.98963294589
-4.08888362191
-4.18783356637
-4.28646278095
-4.38475017664
-4.4826735165
-4.5802093455
-4.67733295829
-4.77401836875
-4.8702382772
-4.96596402596
-5.06116554383
-5.1558112881
-5.2498681936
-5.34330163576
-5.43607540493
-5.52815167629
-5.61949095918
-5.71005203046
-5.79979188015
-5.88866569433
-5.97662686188
-6.06362696176
-6.1496157036
-6.23454084949
-6.31834817559
-6.40098149499
-6.48238269315
-6.5624917115
-6.641246481
-6.71858287829
-6.79443475604
-6.86873400893
-6.94141059225
-7.01239247869
-7.08160562772
-7.14897403575
-7.21441982014
-7.27786326733
-7.33922283748
-7.39841518869
-7.4553552327
-7.50995620636
-7.56212971754
-7.61178579632
-7.6588330171
-7.70317857086
-7.74472814777
-7.7833866973
-7.81905782945
-7.8516441485
-7.88104743179
-7.90716853878
-7.92990741258
-7.94916335834
-7.96483526852
-7.97682143965
-7.98501912146
-7.98932476756
-7.98963623715
-7.98585056009
-7.97786394139
-7.96557172172
-7.94886842673
-7.92764780066
-7.90180275171
-7.87122482244
-7.83580292354
-7.79542242182
-7.74996555738
-7.69931142814
-7.64333366782
-7.58189799804
-7.51486193613
-7.4420739197
-7.36336972998
-7.27856951198
-7.18747689025
-7.08987709256
-6.98553381901
-6.8741882979
-6.75556519668
-6.62939153397
-6.49544031699
-6.35364662431
-6.20447772738
-6.04996524488
-5.89456499048
-5.74551044167
-5.64836885602
4.2688870805
3.79306794188
3.4051982862
3.1173322745
2.89918644119
2.73183362158
2.59550142647
2.47594416257
2.36511420356
2.2586910831
2.15439122851
2.05105113991
1.94809951424
1.84526508539
1.74242796156
1.63954211217
1.53659627037
1.43359460546
1.33054682374
1.22746305371
1.12435392443
1.02122736122
0.918090135062
0.814947381858
0.711802661766
0.608659017866
0.505519120566
0.402385063169
0.29925837687
0.196140508166
0.0930329293424
-0.0100630057347
-0.113145972354
-0.216214507143
-0.319267050877
-0.422302066099
-0.52531797045
-0.628312948317
-0.731285031476
-0.834232180571
-0.937152223355
-1.04004274339
-1.14290110441
-1.24572451791
-1.34850999407
-1.45125425211
-1.5539537243
-1.65660460528
-1.75920283078
-1.86174400254
-1.96422335645
-2.06663578684
-2.16897585496
-2.27123774684
-2.37341521956
-2.47550157329
-2.57748966699
-2.67937190565
-2.78114019005
-2.88278585444
-2.98429962711
-3.08567162518
-3.18689134982
-3.28794764614
-3.3888286352
-3.48952165892
-3.59001326059
-3.69028917799
-3.79033431264
-3.89013267133
-3.98966730644
-4.08892028059
-4.18787264582
-4.28650441554
-4.3847944975
-4.48272066231
-4.58025944728
-4.67738615755
-4.77407481839
-4.8702981397
-4.96602746957
-5.06123273988
-5.15588240928
-5.24994341423
-5.34338113518
-5.43615937184
-5.52824030876
-5.6195844582
-5.71015059348
-5.79989570394
-5.8887749873
-5.97674185067
-6.06374788039
-6.14974277198
-6.23467426519
-6.31848813266
-6.40112821163
-6.48253641463
-6.56265268095
-6.6414149118
-6.71875896484
-6.79461870769
-6.86892606225
-6.94161097935
-7.01260138837
-7.08182320996
-7.14920046215
-7.21465529182
-7.2781079686
-7.33947686638
-7.39867850578
-7.45562783644
-7.51023822046
-7.56242131469
-7.61208719107
-7.65914453302
-7.70350079952
-7.74506231
-7.78373351587
-7.81941794061
-7.85201830609
-7.88143646482
-7.90757332212
-7.93032899129
-7.94960308002
-7.96529476462
-7.97730270223
-7.9855251165
-7.98985985872
-7.99020429607
-7.98645542908
-7.97851016533
-7.96626525471
-7.94961668827
-7.92845932072
-7.9026874311
-7.87219506879
-7.83687489906
-7.79661681654
-7.75130800941
-7.70083333162
-7.64507427386
-7.58390735506
-7.5172033447
-7.44482712845
-7.36663717195
-7.28248407007
-7.19221030548
-7.09565378219
-6.99265314655
-6.88305546687
-6.76673715191
-6.64365012236
-6.51390653768
-6.37794553731
-6.23689434529
-6.09337083489
-5.9522440821
-5.81943879868
-5.7103962878
3.71629308385
3.53387369979
3.29349497893
3.07293446378
2.88743435589
2.7330498052
2.6003803646
2.48103036318
2.36935862658
2.26193012106
2.1567559439
2.05273561114
1.94928132002
1.84608571799
1.7429930877
1.63992868526
1.53685923531
1.43377247067
1.33066655033
1.22754367585
1.12440779376
1.02126308225
0.918113612303
0.814962507342
0.711812266744
0.608665114224
0.505522842133
0.402387006184
0.299259070608
0.19614046391
0.0930324057955
-0.0100639270506
-0.113147177417
-0.216215862289
-0.319268513279
-0.422303656121
-0.525319675561
-0.628314759785
-0.73128697998
-0.834234317861
-0.937154572717
-1.04004529769
-1.14290386622
-1.2457275041
-1.34851321726
-1.4512577224
-1.55395746187
-1.65660863644
-1.75920717387
-1.86174866777
-1.96422836025
-2.06664115885
-2.16898162847
-2.27124394772
-2.37342187015
-2.47550871615
-2.57749736125
-2.67938021069
-2.78114915271
-2.88279550908
-2.98431001201
-3.08568279617
-3.18690337367
-3.2879605811
-3.38884252231
-3.48953653443
-3.59002917477
-3.69030619968
-3.79035251707
-3.89015212853
-3.98968808137
-4.08894244171
-4.18789626719
-4.28652957798
-4.38482126457
-4.48274911202
-4.5802896498
-4.67741819865
-4.77410879119
-4.87033414161
-4.9660655983
-5.06127309189
-5.15592508088
-5.24998850438
-5.34342874862
-5.43620961993
-5.52829330616
-5.61964031849
-5.71020943023
-5.79995764111
-5.8888401638
-5.97681041545
-6.06381997303
-6.14981850804
-6.2347537472
-6.3185714806
-6.40121558025
-6.48262797529
-6.56274858849
-6.64151529876
-6.71886397077
-6.79472850929
-6.86904086254
-6.94173097334
-7.01272677163
-7.08195421594
-7.14933736005
-7.2147983683
-7.27825750147
-7.33963316222
-7.39884206743
-7.45579917694
-7.5104177363
-7.56260936032
-7.61228410467
-7.65935063394
-7.70371627901
-7.74528703666
-7.78396771318
-7.81966209524
-7.85227303988
-7.88170246876
-7.90785143534
-7.93062034842
-7.94990909886
-7.9656169892
-7.9776428143
-7.98588521187
-7.99024276639
-7.99061367712
-7.98689564033
-7.97898640608
-7.96678407382
-7.95018650591
-7.92909068585
-7.9033928757
-7.87298907422
-7.83777497247
-7.79764530235
-7.7524929005
-7.70220831175
-7.64668027893
-7.58579550964
-7.51943718376
-7.44748494448
-7.36981644987
-7.28630733183
-7.1968319223
-7.10126881848
-6.9995094717
-6.89147017422
-6.77711506743
-6.6565019933
-6.5298575164
-6.39769628829
-6.26101923754
-6.12163391145
-5.98226114852
-5.84527364811
-5.71503701705
3.37904386359
3.32871387142
3.18545855373
3.02170312134
2.86765163791
2.72827730845
2.60163882111
2.48418077034
2.37267462585
2.26478766975
2.15901221164
2.05443540571
1.95052522211
1.84697835699
1.74362463498
1.64037049234
1.53716538039
1.43398286877
1.33081006539
1.22764100089
1.12447339298
1.02130700942
0.918142682302
0.814981421895
0.711824466647
0.608672851175
0.505527662342
0.402389852913
0.299260642087
0.196141178069
0.0930324774967
-0.0100643178533
-0.113147884286
-0.216216835032
-0.319269771047
-0.422305215378
-0.525321502176
-0.628316801867
-0.731289211433
-0.83423673287
-0.937157157399
-1.04004804494
-1.14290680233
-1.245730682
-1.34851668376
-1.45126150105
-1.55396156482
-1.65661307749
-1.75921196718
-1.86175382736
-1.96423390701
-2.06664712347
-2.16898804635
-2.27125085671
-2.37342931451
-2.47551674898
-2.57750604088
-2.67938959045
-2.78115927535
-2.88280641872
-2.98432176946
-3.08569547749
-3.18691705222
-3.2879753135
-3.38885835444
-3.48955352057
-3.59004738778
-3.69032572321
-3.79037343272
-3.89017450997
-3.98971200261
-4.08896798392
-4.18792352146
-4.2865586198
-4.38485220717
-4.48278200916
-4.5803246083
-4.677455316
-4.77414817254
-4.87037589487
-4.96610983439
-5.06131992621
-5.15597463276
-5.2500408958
-5.34348410451
-5.43626806938
-5.52835498179
-5.6197053549
-5.71027796685
-5.80002981762
-5.88891613742
-5.97689034468
-6.06390399918
-6.14990675451
-6.23484634176
-6.31866857844
-6.40131735807
-6.48273459702
-6.56286017895
-6.64163195349
-6.7189858191
-6.79485571316
-6.86917357602
-6.94186929773
-7.01287074128
-7.08210386333
-7.14949276733
-7.21495963933
-7.27842469328
-7.33980628288
-7.39902107242
-7.45598411499
-7.51060877896
-7.56280672457
-7.612488073
-7.65956159234
-7.70393472253
-7.7455135552
-7.78420294743
-7.81990674901
-7.85252788033
-7.8819683533
-7.90812942781
-7.9309118141
-7.95021565736
-7.96594048347
-7.97798546692
-7.98624981292
-7.9906327327
-7.99103315771
-7.98734975128
-7.97948127869
-7.96732680277
-7.95078563855
-7.92975717959
-7.90414047707
-7.87383405055
-7.8387365007
-7.79874679612
-7.7537631626
-7.70368233345
-7.64840042812
-7.58781321701
-7.52181505902
-7.45029919459
-7.37315953098
-7.29029195683
-7.20159604334
-7.10697951873
-7.00636744509
-6.89971547887
-6.78702764323
-6.66838920831
-6.54401673587
-6.41431837946
-6.27996829509
-6.14196755748
-6.0014710179
-5.85885567408
-5.71439616313
3.17515359479
3.17861662239
3.09344608192
2.97179116798
2.84418305364
2.71938299108
2.59982414796
2.48536470478
2.3748324248
2.26700362614
2.1609329673
2.05597090447
1.95169641599
1.84784487969
1.74425213034
1.64081762653
1.53747989036
1.43420182474
1.3309611256
1.22774432655
1.12454361008
1.02135449853
0.918174499488
0.815002466226
0.711838176759
0.60868163436
0.505533022933
0.402392945343
0.299262217355
0.196141683878
0.09303228086
-0.0100648977088
-0.113148642348
-0.216217692942
-0.319270739511
-0.422306317502
-0.525322746069
-0.628318209986
-0.731290832263
-0.834238593514
-0.937159228593
-1.04005028553
-1.1429092045
-1.24573325798
-1.34851943656
-1.45126443387
-1.55396470269
-1.65661645757
-1.75921561312
-1.86175774518
-1.9642381015
-2.06665160877
-2.16899284425
-2.27125599503
-2.37343483183
-2.4755226935
-2.57751246101
-2.67939652599
-2.78116676047
-2.8828144931
-2.98433048255
-3.08570487954
-3.18692718284
-3.28798620286
-3.38887003631
-3.48956604217
-3.59006080645
-3.69034009526
-3.79038880755
-3.89019093579
-3.9897295345
-4.08898668494
-4.18794345359
-4.28657984339
-4.38487476432
-4.48280596303
-4.58035001958
-4.67748226138
-4.77417673142
-4.87040614575
-4.96614185277
-5.06135378582
-5.1560104095
-5.25007867115
-5.34352396537
-5.4363101038
-5.52839927514
-5.61975199235
-5.71032704056
-5.80008145562
-5.8889704656
-5.97694747876
-6.06396403789
-6.14996979146
-6.23491248997
-6.3187379799
-6.40139016333
-6.48281093798
-6.56294017687
-6.64171577169
-6.71907364383
-6.79494775263
-6.86927001564
-6.94197029873
-7.01297650559
-7.08221466596
-7.14960888651
-7.21508129511
-7.27855206849
-7.33993960511
-7.39916065572
-7.45613027581
-7.51076175423
-7.56296671509
-7.6126553381
-7.65973647379
-7.70411760962
-7.74570489351
-7.7844033102
-7.82011685588
-7.85274857629
-7.88220064399
-7.90837456403
-7.93117129163
-7.95049121604
-7.96623426923
-7.97830021798
-7.98658879413
-7.99099962039
-7.99143235231
-7.98778694495
-7.9799635383
-7.96786225032
-7.95138361063
-7.93042905563
-7.90490047166
-7.87469956988
-7.83972825028
-7.79988911703
-7.75508520498
-7.70521965263
-7.65019577317
-7.58991724253
-7.52428842898
-7.45321468534
-7.37660334473
-7.29436613128
-7.20642130339
-7.11269659994
-7.01313684607
-6.90771541214
-6.79644560069
-6.67939904243
-6.55673524918
-6.42872114156
-6.29574239954
-6.15827655862
-6.01671128929
-5.87078371219
-5.71975578495
3.05157928153
3.07296757817
3.02045571395
2.92785049602
2.82068935969
2.70850859462
2.59591269749
2.48489516984
2.3758313795
2.26845675968
2.16236900489
2.05720461094
1.95268211837
1.84859812353
1.74481076909
1.64122296155
1.53776918019
1.43440563839
1.33110309693
1.22784227376
1.12461063015
1.02140003226
0.918205201794
0.815022985371
0.711851689153
0.608690335821
0.505538495681
0.402396278956
0.299264120517
0.196142607267
0.0930325135686
-0.0100651590802
-0.113149274698
-0.21621862592
-0.319271908213
-0.422307618443
-0.525324080466
-0.628319558145
-0.731292242981
-0.834240105566
-0.937160862178
-1.04005207666
-1.14291119552
-1.2457354563
-1.34852181685
-1.45126698259
-1.55396743794
-1.65661940495
-1.75921878336
-1.86176114131
-1.96424173425
-2.06665549808
-2.16899701414
-2.27126047506
-2.37343966068
-2.47552791332
-2.57751810867
-2.6794026315
-2.78117335702
-2.8828216255
-2.98433820188
-3.08571322993
-3.18693619722
-3.28799591294
-3.3888804851
-3.4895772843
-3.5900728966
-3.69035307836
-3.79040272118
-3.89020582193
-3.9897454456
-4.08900367918
-4.18796158561
-4.28659916519
-4.38489532508
-4.48282782983
-4.58037325993
-4.6775069447
-4.77420292144
-4.87043390364
-4.96617124544
-5.06138489002
-5.15604330745
-5.25011344398
-5.34356069151
-5.43634886292
-5.52844015286
-5.61979508189
-5.71037244271
-5.8001292563
-5.8890207531
-5.97700033296
-6.06401953508
-6.15002802
-6.234973559
-6.31880200512
-6.40145723797
-6.48288112191
-6.56301351959
-6.64179234063
-6.71915354951
-6.79503109899
-6.86935686851
-6.94206070761
-7.01307055053
-7.08231246103
-7.14971055292
-7.21518693591
-7.27866181805
-7.34005368528
-7.39927934891
-7.45625384942
-7.51089045812
-7.56310085909
-7.61279534492
-7.65988283326
-7.70427082482
-7.74586552954
-7.78457207698
-7.82029460482
-7.85293627344
-7.88239942376
-7.9085858003
-7.93139660805
-7.95073253605
-7.96649400026
-7.97858138181
-7.98689495487
-7.99133486474
-7.99180155135
-7.98819609166
-7.9804199564
-7.96837480524
-7.95196288743
-7.93108743338
-7.90565257971
-7.87556325783
-7.84072516467
-7.80104479695
-7.75642984944
-7.70678933574
-7.65203315261
-7.59207264607
-7.52682167744
-7.45619631946
-7.38011539782
-7.29850328065
-7.21129240892
-7.11842535134
-7.0198591244
-6.91557424131
-6.80558231701
-6.68993409454
-6.5687330412
-6.44213898339
-6.31035623029
-6.17359897342
-6.0319657846
-5.88516190428
-5.73256758914
2.97646357202
3.00170795624
2.96692119678
2.89315400711
2.80050715397
2.6980649638
2.59133303517
2.48350433822
2.37598894847
2.26924314327
2.16331181881
2.0580869384
1.95342290264
1.84918306031
1.74525488041
1.6415509373
1.53800646356
1.43457465833
1.33122198522
1.22792497143
1.12466763527
1.0214390184
0.918231657189
0.81504082475
0.711863570733
0.608698036692
0.505543308205
0.402399166405
0.299265725036
0.196143400011
0.0930327911889
-0.0100652016213
-0.113149543926
-0.216219110704
-0.319272598728
-0.422308477997
-0.52532508753
-0.628320718154
-0.731293532955
-0.834241466979
-0.937162266011
-1.04005355495
-1.14291279372
-1.24573718749
-1.34852367724
-1.45126898362
-1.55396960002
-1.65662173335
-1.75922127026
-1.86176378738
-1.96424455581
-2.0666585163
-2.16900024805
-2.27126394618
-2.37344339692
-2.47553194434
-2.57752246138
-2.67940733381
-2.7811784436
-2.88282713457
-2.98434416498
-3.08571966818
-3.18694313041
-3.28800337148
-3.38888851068
-3.4895859181
-3.5900821684
-3.69036300906
-3.79041333457
-3.89021715368
-3.98975754015
-4.08901657964
-4.18797532731
-4.28661378036
-4.38491084929
-4.48284431067
-4.58039074884
-4.67752549196
-4.77422257467
-4.87045471067
-4.96619325658
-5.06140815565
-5.15606787819
-5.2501393713
-5.34358802934
-5.43637766756
-5.52847048128
-5.61982699193
-5.7104059957
-5.80016452399
-5.88905780977
-5.97703925452
-6.06406040278
-6.15007092693
-6.23501860859
-6.31884929758
-6.40150685772
-6.48293314724
-6.56306805198
-6.64184951845
-6.71921351794
-6.79509396983
-6.86942272004
-6.94212962751
-7.01314266254
-7.08238789329
-7.14978939865
-7.21526927621
-7.2787477906
-7.34014349619
-7.39937320346
-7.45635191239
-7.51099291036
-7.56320800062
-7.6129075905
-7.66000062495
-7.70439462872
-7.74599593922
-7.78470986894
-7.82044067695
-7.85309161607
-7.88256521759
-7.90876352495
-7.93158807101
-7.95093989867
-7.96671984184
-7.97882876377
-7.98716756682
-7.9916372748
-7.9921392765
-7.98857545944
-7.98084835245
-7.96886144488
-7.95251920392
-7.93172678842
-7.90639038184
-7.87641789581
-7.84171883417
-7.8022039628
-7.75778580777
-7.70837889688
-7.65389961133
-7.59426692284
-7.52940312904
-7.45923395286
-7.38368930419
-7.30270504519
-7.21622540244
-7.12420485539
-7.02661055007
-6.92342819452
-6.81466795278
-6.70036594385
-6.58059187781
-6.45544711289
-6.32505181325
-6.18952149257
-6.04890405444
-5.90306656865
-5.75176420046
2.93301108337
2.95780597077
2.93210068476
2.86944357786
2.78594928206
2.69001843451
2.58744352428
2.48201588952
2.37575350678
2.2695789959
2.16384675312
2.05863587037
1.9539060019
1.84957608148
1.74555938784
1.64177911484
1.53817344225
1.43469459553
1.33130678614
1.22798418759
1.12470850261
1.02146680192
0.91825030693
0.815053243812
0.711871713021
0.608703244636
0.505546557239
0.402401112176
0.299266787807
0.196143794504
0.0930327597323
-0.0100654879965
-0.113149981912
-0.21621963206
-0.319273151406
-0.422309057709
-0.525325750777
-0.628321520551
-0.731294466765
-0.834242490315
-0.937163362293
-1.04005473141
-1.14291404581
-1.24573850239
-1.34852506496
-1.45127047567
-1.55397121577
-1.65662346704
-1.75922311309
-1.86176574675
-1.96424664929
-2.06666075873
-2.16900265184
-2.27126652838
-2.37344617913
-2.47553494719
-2.57752570455
-2.67941084156
-2.78118224545
-2.88283125742
-2.98434862723
-3.08572448494
-3.18694832481
-3.2880089783
-3.38889456718
-3.4895924512
-3.59008919216
-3.69037053503
-3.79042138002
-3.89022575013
-3.98976672245
-4.08902637632
-4.1879857608
-4.28662487632
-4.38492264456
-4.48285685128
-4.58040407966
-4.67753964601
-4.77423757998
-4.87047059613
-4.96621005762
-5.06142591741
-5.15608664478
-5.25015918301
-5.34360892621
-5.436399694
-5.5284936857
-5.61985142172
-5.71043169311
-5.80019152654
-5.88908615535
-5.97706898689
-6.0640915751
-6.15010360187
-6.23505284687
-6.31888514524
-6.40154434656
-6.48297231582
-6.56310896566
-6.64189226245
-6.71925816854
-6.79514057842
-6.86947133828
-6.94218034101
-7.01319558619
-7.08244313214
-7.14984704059
-7.21532944455
-7.27881068208
-7.34020933217
-7.39944215383
-7.45642412333
-7.51106862601
-7.5632876
-7.61299148927
-7.66008921064
-7.70448835624
-7.7460954537
-7.784815982
-7.82055428174
-7.85321373311
-7.88269712766
-7.90890681787
-7.93174464672
-7.95111203715
-7.9669102648
-7.97904065019
-7.98740473029
-7.99190449274
-7.99244239111
-7.98892126156
-7.98124475363
-7.96931795231
-7.95304726506
-7.93234009859
-7.90710533956
-7.87725389467
-7.84269859628
-7.80335437316
-7.75913873288
-7.70997186358
-7.65577681272
-7.59647986261
-7.5320111978
-7.46230600643
-7.38730480958
-7.30695415605
-7.2212090699
-7.13003571544
-7.03341194625
-6.93133025412
-6.82380359445
-6.71086477883
-6.59257213879
-6.4690063796
-6.34026595605
-6.20645954095
-6.06768160092
-5.92398990421
-5.77548215045
2.9129709548
2.93689465096
2.91500060866
2.85746123934
2.7783646756
2.68567486864
2.58524081635
2.48109202434
2.37552276431
2.26968198107
2.16408007446
2.05889433618
1.95414164736
1.84977162767
1.74571282806
1.64189530254
1.53825918526
1.43475656489
1.33135091423
1.22801532671
1.12473024818
1.02148182263
0.918260622098
0.815060225659
0.711876289871
0.608706147478
0.505548329295
0.40240209235
0.299267200383
0.196143837216
0.0930325755142
-0.0100658166601
-0.113150423429
-0.216220155408
-0.319273716617
-0.422309645512
-0.525326366162
-0.628322157972
-0.731295112351
-0.83424315755
-0.937164088574
-1.04005553325
-1.14291490478
-1.24573940024
-1.34852600939
-1.45127148296
-1.55397228769
-1.6566245985
-1.75922431067
-1.86176702681
-1.96424802316
-2.06666222995
-2.1690042262
-2.2712682192
-2.37344800175
-2.47553691409
-2.57752782888
-2.6794131415
-2.7811847403
-2.88283396036
-2.98435154576
-3.08572763075
-3.1869517209
-3.28801265335
-3.38889854176
-3.48959673027
-3.59009377202
-3.69037541641
-3.79042658483
-3.89023130304
-3.98977264337
-4.08903267566
-4.18799244705
-4.28663196707
-4.38493016935
-4.48286484388
-4.58041256204
-4.67754863749
-4.77424709474
-4.87048065574
-4.96622069158
-5.0614371488
-5.15609849153
-5.25017166271
-5.34362206239
-5.43641351499
-5.52850821622
-5.61986667723
-5.71044768514
-5.80020827542
-5.88910369744
-5.97708737097
-6.06411085621
-6.15012382702
-6.23507404998
-6.31890735699
-6.40156760429
-6.48299667087
-6.56313447926
-6.64191898735
-6.71928613357
-6.79516979891
-6.86950184816
-6.94221220917
-7.01322888781
-7.08247792234
-7.14988338426
-7.21536746637
-7.27885055524
-7.34025121036
-7.39948615924
-7.45647043762
-7.51111756327
-7.56333954024
-7.61304677517
-7.66014819403
-7.70455154808
-7.74616355012
-7.78488975446
-7.82063457885
-7.85330165334
-7.88279409947
-7.90901449135
-7.9318648764
-7.95124709341
-7.96706300586
-7.97921450231
-7.98760369364
-7.99213331592
-7.99270683577
-7.98922839446
-7.98160309032
-7.96973734935
-7.95353912487
-7.93291825304
-7.90778667636
-7.87805825584
-7.84364913456
-7.80447857299
-7.76046899259
-7.71154598302
-7.65763895198
-7.59868150765
-7.53461217542
-7.46537528126
-7.39092134927
-7.31120790897
-7.22620112979
-7.13587853489
-7.04022898082
-6.93925558859
-6.83298001745
-6.72144059426
-6.60469998042
-6.48284438175
-6.35598511458
-6.2242625638
-6.08784843375
-5.94696263523
-5.801948541
2.91297173492
2.93689399769
2.91500031065
2.85746158292
2.77836452343
2.68567457471
2.58524075696
2.48109202781
2.37552277267
2.26968201809
2.16408015853
2.05889439476
1.95414179683
1.84977169425
1.74571280647
1.64189531557
1.53825921575
1.43475653231
1.33135084044
1.22801520207
1.1247300191
1.02148154454
0.918260344191
0.815059918563
0.711875964708
0.608705854837
0.505548069676
0.402401825937
0.299266907159
0.196143535949
0.0930322897503
-0.010066091695
-0.113150715318
-0.216220491537
-0.319274109584
-0.422310093339
-0.52532684352
-0.628322621923
-0.731295539536
-0.834243564294
-0.937164503145
-1.04005596448
-1.1429153497
-1.24573986518
-1.34852650431
-1.45127200336
-1.55397281973
-1.65662514087
-1.75922487901
-1.86176763655
-1.9642486779
-2.0666629289
-2.16900497503
-2.27126902846
-2.37344887881
-2.47553786211
-2.57752885286
-2.67941425023
-2.78118594106
-2.88283525554
-2.98435293848
-3.08572913276
-3.18695335167
-3.28801442878
-3.38890046326
-3.4895987876
-3.59009595638
-3.69037773213
-3.79042904438
-3.89023392007
-3.9897754213
-4.08903561072
-4.1879955407
-4.28663523446
-4.38493363463
-4.48286852676
-4.5804164711
-4.6775527704
-4.77425145377
-4.87048525145
-4.96622553646
-5.06144225216
-5.15610385613
-5.25017729263
-5.34362796948
-5.43641971398
-5.52851471307
-5.61987346567
-5.71045475796
-5.8002156388
-5.88911137187
-5.97709537795
-6.0641191961
-6.15013248985
-6.2350830396
-6.31891669046
-6.40157730854
-6.4830067803
-6.56314502123
-6.64192997511
-6.71929757094
-6.79518169918
-6.8695142507
-6.94222516885
-7.01324245217
-7.08249213375
-7.14989831221
-7.21538322159
-7.27886725502
-7.34026895241
-7.3995050733
-7.45649076021
-7.51113961222
-7.56336360987
-7.61307312981
-7.66017721078
-7.70458380694
-7.74619973636
-7.78493057086
-7.82068087475
-7.85335459829
-7.8828551386
-7.90908522699
-7.93194716737
-7.95134327148
-7.96717595777
-7.97934769176
-7.98776125222
-7.99232010624
-7.99292856749
-7.98949198768
-7.98191700084
-7.97011161858
-7.95398560779
-7.93345111241
-7.90842263395
-7.87881694394
-7.84455393235
-7.80555714595
-7.76175361764
-7.71307445689
-7.6594555543
-7.60083777115
-7.53716755342
-7.46839800454
-7.3944900569
-7.31541237881
-7.23114238793
-7.14166918297
-7.04699542821
-6.94713596522
-6.8421249828
-6.73201552657
-6.6168835077
-6.49683468683
-6.37200845875
-6.24259076654
-6.10882871195
-5.97106105753
-5.82978601982
2.93301312255
2.95780397914
2.93209958256
2.86944429737
2.78594914003
2.69001788541
2.58744357309
2.48201597556
2.37575335328
2.2695791447
2.16384690198
2.05863593366
1.95390623291
1.84957615593
1.74555928831
1.64177917998
1.53817358952
1.43469464588
1.33130687517
1.22798435825
1.12470858861
1.0214667942
0.918250224384
0.815052932295
0.711871098487
0.608702430147
0.505545630365
0.402400073296
0.299265647774
0.196142621885
0.0930316248814
-0.0100665878785
-0.113151104183
-0.216220809683
-0.319274378712
-0.422310327447
-0.525327047082
-0.628322796708
-0.731295694478
-0.834243706089
-0.937164622822
-1.04005604889
-1.14291540359
-1.24573990747
-1.3485265428
-1.45127202538
-1.55397281211
-1.6566251071
-1.75922483125
-1.86176758004
-1.96424861109
-2.06666285434
-2.16900490155
-2.27126896212
-2.37344881665
-2.47553779711
-2.57752878115
-2.67941417091
-2.78118585129
-2.88283515065
-2.98435281829
-3.08572900488
-3.18695322434
-3.2880142996
-3.38890031673
-3.48959860437
-3.59009572657
-3.69037745913
-3.79042873477
-3.89023357178
-3.98977502078
-4.0890351433
-4.18799500325
-4.28663463718
-4.38493298931
-4.48286783327
-4.58041571637
-4.67755193865
-4.7742505391
-4.87048425687
-4.96622446202
-5.06144108609
-5.15610258066
-5.2501758968
-5.3436264521
-5.43641807131
-5.52851292625
-5.61987150566
-5.71045260433
-5.80021328952
-5.8891088304
-5.97709263187
-6.06411621935
-6.15012925729
-6.23507954262
-6.31891293957
-6.4015733181
-6.48300254138
-6.56314051066
-6.64192516589
-6.71929244795
-6.79517626688
-6.86950853167
-6.94221919185
-7.013236244
-7.0824857283
-7.14989176525
-7.21537660508
-7.27886064029
-7.3402624284
-7.39949879869
-7.45648497099
-7.51113455224
-7.56335949174
-7.61307022132
-7.66017594236
-7.70458473813
-7.74620346454
-7.78493779077
-7.82069252253
-7.85337182799
-7.88287921489
-7.90911765352
-7.93198994232
-7.95139886043
-7.96724711794
-7.97943765188
-7.98787410272
-7.99246085102
-7.99310299271
-7.98970686283
-7.98218050534
-7.97043367824
-7.95437812166
-7.93392807969
-7.90900050934
-7.87951542192
-7.84539633351
-7.80657048708
-7.76296963695
-7.71453075852
-7.66119593862
-7.60291295983
-7.53963635561
-7.47132834889
-7.39795941432
-7.31950931866
-7.23596804165
-7.14733689904
-7.05363155007
-6.95488396925
-6.85114130916
-6.74247611056
-6.62898430671
-6.51079597535
-6.38808521874
-6.26108200878
-6.13009530828
-5.99554323088
-5.85800710384
2.97646560326
3.00170538449
2.9669198217
2.89315461317
2.8005067121
2.69806433055
2.59133309328
2.48350463063
2.3759890444
2.26924357993
2.16331252145
2.05808775499
1.95342381751
1.8491841035
1.74525592581
1.64155202231
1.53800744539
1.43457533654
1.33122238218
1.22792512397
1.1246674606
1.02143852569
0.91823096964
0.81503993126
0.711862387204
0.608696612122
0.505541734271
0.402397444262
0.299263837731
0.196141404788
0.0930307734152
-0.0100672166115
-0.113151582209
-0.216221153029
-0.319274585917
-0.422310408001
-0.525327025697
-0.628322707259
-0.731295564812
-0.834243541386
-0.937164409213
-1.04005577697
-1.14291508088
-1.24573954318
-1.34852612996