/*--------------------------------*- C++ -*----------------------------------*\
| =========                 |                                                 |
| \\      /  F ield         | OpenFOAM: The Open Source CFD Toolbox           |
|  \\    /   O peration     | Version:  2106                                  |
|   \\  /    A nd           | Website:  www.openfoam.com                      |
|    \\/     M anipulation  |                                                 |
\*---------------------------------------------------------------------------*/
FoamFile
{
    version     2.0;
    format      ascii;
    arch        "LSB;label=32;scalar=64";
    class       surfaceScalarField;
    location    "0.01";
    object      phi;
}
// * * * * * * * * * * * * * * * * * * * * * * * * * * * * * * * * * * * * * //

dimensions      [0 3 -1 0 0 0 0];

oriented        oriented;

internalField   nonuniform List<scalar> 
18840
(
3.37517836666e-05
1.62482163346e-05
2.26548615876e-05
1.10969239784e-05
1.66921952477e-05
5.96266805246e-06
1.35766138378e-05
3.1155826061e-06
1.19907886411e-05
1.58582565714e-06
1.1187745964e-05
8.03043228299e-07
1.07778999426e-05
4.0984557938e-07
1.05654516094e-05
2.12447519793e-07
1.04531859283e-05
1.12265416209e-07
1.03927903316e-05
6.03954280848e-08
1.03599106075e-05
3.28796006023e-08
1.03419570736e-05
1.79536125325e-08
1.0332228009e-05
9.72914499987e-09
1.03270598644e-05
5.16796994569e-09
1.03244124973e-05
2.64722178418e-09
1.03231391852e-05
1.27298041827e-09
1.0322596135e-05
5.42773142386e-10
1.03224253633e-05
1.70673496901e-10
1.03224273878e-05
-2.02104872851e-12
1.03225080527e-05
-8.04267726279e-11
1.03226072124e-05
-9.88095144047e-11
1.03227018026e-05
-9.43538833499e-11
1.03227831031e-05
-8.12139842814e-11
1.03228484222e-05
-6.53821830481e-11
1.03228988871e-05
-5.06148867826e-11
1.03229368568e-05
-3.79545457138e-11
1.03229648728e-05
-2.78252844074e-11
1.03229852172e-05
-2.01475548309e-11
1.03229998146e-05
-1.44752237585e-11
1.03230101536e-05
-1.02922384844e-11
1.03230173694e-05
-7.2084360154e-12
1.03230223636e-05
-5.00166474041e-12
1.03230258493e-05
-3.49822392256e-12
1.0323028331e-05
-2.48857892578e-12
1.03230301135e-05
-1.80083935434e-12
1.03230314011e-05
-1.32922460034e-12
1.03230322705e-05
-8.9583930214e-13
1.03230328795e-05
-6.01352563764e-13
1.03230333418e-05
-4.55077562398e-13
1.03230337224e-05
-3.8607743499e-13
1.03230340591e-05
-3.19456136e-13
1.03230343626e-05
-2.57326026288e-13
1.03230346414e-05
-2.32160772253e-13
1.03230349155e-05
-2.31425634515e-13
1.03230351935e-05
-2.26423862301e-13
1.03230354666e-05
-2.22971239366e-13
1.03230357335e-05
-2.43300090381e-13
1.0323036013e-05
-2.80572200198e-13
1.0323036319e-05
-3.07087116135e-13
1.03230366396e-05
-3.1589526735e-13
1.03230369562e-05
-3.249151946e-13
1.03230372686e-05
-3.46769767013e-13
1.03230375903e-05
-3.74119034034e-13
1.03230379267e-05
-3.93217644614e-13
1.03230382706e-05
-4.02719979297e-13
1.03230386205e-05
-4.173057852e-13
1.03230389887e-05
-4.46012016457e-13
1.03230393976e-05
-4.87394500964e-13
1.03230398631e-05
-5.30099788071e-13
1.03230403829e-05
-5.63872301547e-13
1.03230409419e-05
-5.88420923523e-13
1.03230415288e-05
-6.10800665505e-13
1.03230421457e-05
-6.35762126795e-13
1.03230428009e-05
-6.61217754996e-13
1.0323043496e-05
-6.83987224093e-13
1.03230442236e-05
-7.0656226473e-13
1.0323044976e-05
-7.34468342228e-13
1.03230457534e-05
-7.67873455578e-13
1.03230465608e-05
-7.99985545995e-13
1.03230474004e-05
-8.25276104307e-13
1.03230482696e-05
-8.46877465795e-13
1.03230491678e-05
-8.73652580513e-13
1.03230500995e-05
-9.10552445282e-13
1.03230510708e-05
-9.53221179926e-13
1.03230520804e-05
-9.9254495718e-13
1.03230531174e-05
-1.02280157027e-12
1.03230541716e-05
-1.04853900546e-12
1.03230552463e-05
-1.08119893918e-12
1.03230563593e-05
-1.12795658935e-12
1.03230575281e-05
-1.18329189245e-12
1.0323058754e-05
-1.23216307198e-12
1.03230600205e-05
-1.26429787575e-12
1.03230613111e-05
-1.28557871775e-12
1.03230626267e-05
-1.31327923337e-12
1.03230639843e-05
-1.35765022214e-12
1.03230653984e-05
-1.40960713564e-12
1.0323066863e-05
-1.44923094368e-12
1.03230683549e-05
-1.46716165103e-12
1.03230698555e-05
-1.47566533611e-12
1.03230713679e-05
-1.4953305581e-12
1.03230729112e-05
-1.53226198134e-12
1.03230744992e-05
-1.5718371525e-12
1.03230761231e-05
-1.59504782243e-12
1.03230777579e-05
-1.59982697046e-12
1.03230793852e-05
-1.60279087469e-12
1.03230810078e-05
-1.61902855671e-12
1.03230826421e-05
-1.64374571109e-12
1.03230842951e-05
-1.65808893899e-12
1.0323085954e-05
-1.65272834984e-12
1.03230876011e-05
-1.64076123724e-12
1.03230892353e-05
-1.64200578227e-12
1.03230908745e-05
-1.65956105056e-12
1.03230925369e-05
-1.67958604486e-12
1.03230942249e-05
-1.69261101474e-12
1.03230959339e-05
-1.70943852535e-12
1.03230976735e-05
-1.74815541846e-12
1.03230994896e-05
-1.83039934947e-12
1.03231014418e-05
-1.95775157489e-12
1.03231035796e-05
-2.12714791177e-12
1.03231059596e-05
-2.35950517251e-12
1.03231087416e-05
-2.75846374716e-12
1.03231121357e-05
-3.3659267248e-12
1.03231163421e-05
-4.17510903405e-12
1.0323121641e-05
-5.27740830093e-12
1.03231284288e-05
-6.78128078319e-12
1.03231372402e-05
-8.80051642824e-12
1.03231487757e-05
-1.1499802728e-11
1.032316391e-05
-1.50899333355e-11
1.03231838195e-05
-1.98925380134e-11
1.03232100923e-05
-2.62805965323e-11
1.0323244783e-05
-3.4677632606e-11
1.03232905014e-05
-4.56685779152e-11
1.03233505998e-05
-6.00605628011e-11
1.03234294713e-05
-7.88838231425e-11
1.03235329021e-05
-1.03450750672e-10
1.03236686335e-05
-1.35694865759e-10
1.03238480294e-05
-1.79311389789e-10
1.03240857226e-05
-2.37618326406e-10
1.0324389683e-05
-3.03923051496e-10
1.03247834508e-05
-3.93778091678e-10
1.03252942393e-05
-5.10863613045e-10
1.03259561818e-05
-6.62015507675e-10
1.03268130115e-05
-8.56743496212e-10
1.03279208336e-05
-1.10758187208e-09
1.03293515877e-05
-1.4306572759e-09
1.03311976515e-05
-1.84632180645e-09
1.03335777817e-05
-2.38048200113e-09
1.03366447034e-05
-3.06692886539e-09
1.03405949552e-05
-3.94988399837e-09
1.03456816922e-05
-5.08637457716e-09
1.03522314968e-05
-6.54974209712e-09
1.03606668752e-05
-8.43554619202e-09
1.03715362462e-05
-1.0869524261e-08
1.03855537548e-05
-1.401762102e-08
1.04036536132e-05
-1.81001465235e-08
1.04270660698e-05
-2.34128096007e-08
1.04574237297e-05
-3.03576070794e-08
1.04969126479e-05
-3.94885866818e-08
1.05484943153e-05
-5.15816660998e-08
1.06162398801e-05
-6.77457389416e-08
1.0705846557e-05
-8.96065378269e-08
1.08254726375e-05
-1.19625852545e-07
1.09871866261e-05
-1.61713899758e-07
1.12098032986e-05
-2.2261634374e-07
1.15255342871e-05
-3.15730535703e-07
1.19984493725e-05
-4.72915188895e-07
1.27807664368e-05
-7.82316776602e-07
1.4300531541e-05
-1.51976372913e-06
1.79512157284e-05
-3.65068396744e-06
-1.06534354906e-05
2.8604645228e-05
5.02274313059e-05
1.60207825873e-05
4.46100849747e-05
1.67142677575e-05
3.8867095689e-05
1.17056550246e-05
3.46346286136e-05
7.34804772694e-06
3.19032668865e-05
4.31718443689e-06
3.02655275099e-05
2.44078054554e-06
2.93194947832e-05
1.35587686956e-06
2.87817090313e-05
7.5023158509e-07
2.84769302596e-05
4.17043081558e-07
2.83034896266e-05
2.33835344254e-07
2.82041637539e-05
1.32205009665e-07
2.81470021674e-05
7.51148094761e-08
2.81140565601e-05
4.26749962805e-08
2.80951197322e-05
2.41052117265e-08
2.80843146525e-05
1.34527548051e-08
2.80782256536e-05
7.36260134181e-09
2.80748574635e-05
3.91137983956e-09
2.80730437574e-05
1.98443124677e-09
2.80721087842e-05
9.32857367555e-10
2.80716532293e-05
3.74868352609e-10
2.80714584631e-05
9.56050618997e-11
2.80713954416e-05
-3.13971894735e-11
2.80713968235e-05
-8.23210196218e-11
2.80714243763e-05
-9.25928241658e-11
2.80714597381e-05
-8.57513180209e-11
2.80714939297e-05
-7.2146464009e-11
2.80715233728e-05
-5.73958822331e-11
2.80715472148e-05
-4.40288558117e-11
2.80715657805e-05
-3.2945631859e-11
2.80715797925e-05
-2.41867362733e-11
2.80715900827e-05
-1.74524983549e-11
2.80715975079e-05
-1.24166452802e-11
2.80716028668e-05
-8.80492508273e-12
2.80716067652e-05
-6.30765781411e-12
2.80716095648e-05
-4.52555317155e-12
2.8071611477e-05
-3.13261040794e-12
2.80716128001e-05
-2.06482831015e-12
2.80716137015e-05
-1.36513004473e-12
2.80716143336e-05
-9.89332911851e-13
2.80716148235e-05
-7.82196774785e-13
2.80716152211e-05
-6.2856664724e-13
2.80716155186e-05
-5.10319512788e-13
2.80716157676e-05
-4.7922812836e-13
2.80716159981e-05
-4.66923029121e-13
2.80716162166e-05
-4.46139564105e-13
2.80716164106e-05
-4.27300946348e-13
2.80716165866e-05
-4.3024856666e-13
2.80716167748e-05
-4.58515210939e-13
2.80716169897e-05
-5.00032491064e-13
2.8071617213e-05
-5.44035093658e-13
2.80716174241e-05
-5.90367962579e-13
2.80716176264e-05
-6.41518343311e-13
2.80716178364e-05
-6.91140776241e-13
2.80716180579e-05
-7.26536792672e-13
2.80716182786e-05
-7.44592217883e-13
2.80716184906e-05
-7.61282972653e-13
2.80716187099e-05
-7.9553591886e-13
2.80716189657e-05
-8.52167037214e-13
2.8071619276e-05
-9.18778171129e-13
2.80716196344e-05
-9.76602825582e-13
2.80716200206e-05
-1.01586986338e-12
2.8071620422e-05
-1.0411193651e-12
2.80716208426e-05
-1.06380946667e-12
2.8071621291e-05
-1.09177236324e-12
2.80716217651e-05
-1.12654921977e-12
2.80716222542e-05
-1.16763787788e-12
2.80716227524e-05
-1.21422115517e-12
2.80716232656e-05
-1.26249641407e-12
2.80716238025e-05
-1.30594881335e-12
2.80716243626e-05
-1.34149564698e-12
2.80716249374e-05
-1.37493420956e-12
2.80716255215e-05
-1.41769543086e-12
2.80716261196e-05
-1.47676656363e-12
2.8071626739e-05
-1.5464993081e-12
2.80716273796e-05
-1.61422600266e-12
2.80716280278e-05
-1.66500095711e-12
2.80716286713e-05
-1.70243979898e-12
2.80716293162e-05
-1.74680965829e-12
2.80716299849e-05
-1.81552113236e-12
2.80716306975e-05
-1.90292011013e-12
2.80716314526e-05
-1.98238821551e-12
2.80716322297e-05
-2.03246199175e-12
2.80716330109e-05
-2.06121707937e-12
2.80716338003e-05
-2.09949537684e-12
2.80716346201e-05
-2.16726928733e-12
2.80716354865e-05
-2.25019585895e-12
2.80716363906e-05
-2.31412286182e-12
2.80716373059e-05
-2.3423024142e-12
2.80716382137e-05
-2.35366894042e-12
2.80716391214e-05
-2.38121399797e-12
2.80716400523e-05
-2.43461206151e-12
2.80716410196e-05
-2.49419295438e-12
2.80716420123e-05
-2.53567303054e-12
2.80716430059e-05
-2.55741635076e-12
2.80716439878e-05
-2.57843588947e-12
2.80716449686e-05
-2.61223788771e-12
2.80716459686e-05
-2.65086899799e-12
2.80716469969e-05
-2.67892445717e-12
2.80716480491e-05
-2.69846571133e-12
2.80716491272e-05
-2.73322414085e-12
2.80716502572e-05
-2.80417511883e-12
2.80716514828e-05
-2.91194861046e-12
2.80716528496e-05
-3.0531297157e-12
2.80716544014e-05
-3.24266248958e-12
2.8071656192e-05
-3.50826868506e-12
2.80716582899e-05
-3.86209000675e-12
2.80716608395e-05
-4.38180282439e-12
2.80716640408e-05
-5.13351373981e-12
2.80716681462e-05
-6.18972084029e-12
2.80716734787e-05
-7.64769327096e-12
2.80716803987e-05
-9.63629757384e-12
2.80716893839e-05
-1.23104507311e-11
2.80717011366e-05
-1.58962165796e-11
2.80717165581e-05
-2.06776702633e-11
2.80717367505e-05
-2.69420963729e-11
2.80717629095e-05
-3.49004647184e-11
2.80717958667e-05
-4.43945373205e-11
2.80718413805e-05
-6.0578728334e-11
2.80719023048e-05
-8.08195806454e-11
2.80719827969e-05
-1.06746013293e-10
2.80720886412e-05
-1.40452295943e-10
2.80722273458e-05
-1.84322496158e-10
2.80724086186e-05
-2.41335451078e-10
2.80726449856e-05
-3.15234585633e-10
2.80729524821e-05
-4.10844107766e-10
2.80733514207e-05
-5.34509453092e-10
2.80738667406e-05
-6.94600541709e-10
2.80745311468e-05
-9.02058375427e-10
2.80753976306e-05
-1.17036802904e-09
2.80765199024e-05
-1.51591936686e-09
2.80779691382e-05
-1.96003050598e-09
2.80798372444e-05
-2.53024324736e-09
2.8082242083e-05
-3.26182712511e-09
2.8085334494e-05
-4.20010694002e-09
2.80893074125e-05
-5.40330561561e-09
2.80944075304e-05
-6.94588906584e-09
2.81009503715e-05
-8.92306384331e-09
2.81093400667e-05
-1.14570494433e-08
2.81200949431e-05
-1.47054164087e-08
2.81338802821e-05
-1.88719035386e-08
2.81515511827e-05
-2.42204811213e-08
2.81742098255e-05
-3.10941663855e-08
2.82032816388e-05
-3.99412985089e-08
2.82406167045e-05
-5.13523522498e-08
2.82886276432e-05
-6.61108658277e-08
2.83504806607e-05
-8.52660714817e-08
2.84303633842e-05
-1.10240694581e-07
2.85338674747e-05
-1.42992810075e-07
2.86685497281e-05
-1.86263955538e-07
2.88447790504e-05
-2.43975371645e-07
2.9077058717e-05
-3.21886742295e-07
2.93861781959e-05
-4.28745652117e-07
2.98028994342e-05
-5.78435772289e-07
3.03746512634e-05
-7.94369398836e-07
3.11784337106e-05
-1.11951382248e-06
3.23470597452e-05
-1.64154239709e-06
3.41220581601e-05
-2.55731706387e-06
3.69390496158e-05
-4.3367552584e-06
4.14424171517e-05
-8.15404684456e-06
-1.67805090324e-05
4.75694964267e-05
5.37086359869e-05
1.23121464873e-05
5.34678874919e-05
1.69550157113e-05
5.09465369463e-05
1.42270043013e-05
4.81660162006e-05
1.0128567319e-05
4.59221923301e-05
6.56100683053e-06
4.43549234768e-05
4.00804805156e-06
4.33434453354e-05
2.36735454814e-06
4.27186095627e-05
1.3750666422e-06
4.23412671603e-05
7.9438496348e-07
4.21156437987e-05
4.59458624806e-07
4.19811646011e-05
2.66684062456e-07
4.19010527151e-05
1.55226409222e-07
4.18533477194e-05
9.03797821813e-08
4.18249858377e-05
5.24667637476e-08
4.18081816376e-05
3.02567635398e-08
4.17982802376e-05
1.72639649331e-08
4.17924918696e-05
9.69982142608e-09
4.1789143708e-05
5.33281615183e-09
4.17872345485e-05
2.8422048109e-09
4.17861646133e-05
1.44484706473e-09
4.17855804213e-05
6.79707885891e-10
4.17852739776e-05
2.74750342154e-10
4.17851210371e-05
7.02911321083e-11
4.17850510519e-05
-2.27456022288e-11
4.17850258108e-05
-6.04377191698e-11
4.17850221388e-05
-6.83683797043e-11
4.17850279935e-05
-6.31949428713e-11
4.17850371829e-05
-5.31304557981e-11
4.17850466554e-05
-4.22899024052e-11
4.1785055039e-05
-3.24708490055e-11
4.17850618869e-05
-2.42087658091e-11
4.17850672301e-05
-1.76229278975e-11
4.17850712975e-05
-1.27260224241e-11
4.17850743549e-05
-9.2593790556e-12
4.17850766352e-05
-6.71641098912e-12
4.17850783157e-05
-4.71119611384e-12
4.17850795025e-05
-3.17049974375e-12
4.1785080319e-05
-2.14278441496e-12
4.17850809023e-05
-1.55257881676e-12
4.17850813516e-05
-1.20621576114e-12
4.1785081701e-05
-9.59186500283e-13
4.17850819736e-05
-7.83198975419e-13
4.17850821757e-05
-6.83138804202e-13
4.17850823485e-05
-6.27916024696e-13
4.17850824946e-05
-5.75250220799e-13
4.17850826028e-05
-5.23456678193e-13
4.17850826927e-05
-5.09862475617e-13
4.17850828008e-05
-5.55224334936e-13
4.17850829328e-05
-6.30866869467e-13
4.17850830643e-05
-6.98981442598e-13
4.17850831789e-05
-7.54356436429e-13
4.1785083287e-05
-8.14640524005e-13
4.17850834037e-05
-8.81088700089e-13
4.17850835229e-05
-9.29270385339e-13
4.17850836169e-05
-9.36652616174e-13
4.17850837065e-05
-9.57478464076e-13
4.17850838036e-05
-9.92638059563e-13
4.17850839307e-05
-1.05944496852e-12
4.17850841004e-05
-1.14804890081e-12
4.17850843063e-05
-1.22892281349e-12
4.17850845326e-05
-1.2786423419e-12
4.17850847707e-05
-1.29855395143e-12
4.17850850221e-05
-1.30992437161e-12
4.17850852887e-05
-1.33271515551e-12
4.17850855644e-05
-1.37110716491e-12
4.17850858399e-05
-1.41779609265e-12
4.17850861133e-05
-1.46552506291e-12
4.17850863908e-05
-1.51124581496e-12
4.17850866786e-05
-1.55371697186e-12
4.17850869745e-05
-1.59261301222e-12
4.17850872719e-05
-1.6326426355e-12
4.17850875686e-05
-1.6836156637e-12
4.17850878702e-05
-1.75390564481e-12
4.17850881795e-05
-1.83532424009e-12
4.17850884964e-05
-1.91735144689e-12
4.17850888044e-05
-1.97086589431e-12
4.17850890992e-05
-2.00708973074e-12
4.17850893862e-05
-2.04888561029e-12
4.17850896835e-05
-2.12404264305e-12
4.17850900069e-05
-2.229261621e-12
4.1785090356e-05
-2.32912029899e-12
4.17850907153e-05
-2.39123310344e-12
4.17850910712e-05
-2.42191375361e-12
4.17850914269e-05
-2.46064603622e-12
4.17850917986e-05
-2.53632995341e-12
4.17850921971e-05
-2.63378436868e-12
4.17850926142e-05
-2.70945708139e-12
4.17850930295e-05
-2.73927619879e-12
4.17850934329e-05
-2.74634409072e-12
4.1785093834e-05
-2.77132978793e-12
4.17850942507e-05
-2.82820691194e-12
4.17850946924e-05
-2.90027444937e-12
4.17850951526e-05
-2.96277332797e-12
4.17850956186e-05
-3.00963606183e-12
4.17850960887e-05
-3.05328830177e-12
4.17850965763e-05
-3.10405823084e-12
4.17850970969e-05
-3.1598881484e-12
4.17850976572e-05
-3.21898658215e-12
4.17850982637e-05
-3.29692700408e-12
4.17850989476e-05
-3.42979448898e-12
4.1785099765e-05
-3.63891459433e-12
4.17851007767e-05
-3.9262740084e-12
4.17851020392e-05
-4.30560752733e-12
4.17851036174e-05
-4.81723068749e-12
4.17851056201e-05
-5.52055689401e-12
4.17851082531e-05
-6.50149589522e-12
4.17851117408e-05
-7.85629607783e-12
4.17851163305e-05
-9.69737118482e-12
4.1785122281e-05
-1.21208217927e-11
4.17851297638e-05
-1.51193330313e-11
4.17851399869e-05
-1.98412517488e-11
4.1785154291e-05
-2.65844335774e-11
4.17851735231e-05
-3.51001940216e-11
4.17851991586e-05
-4.62913244069e-11
4.178523325e-05
-6.10018632431e-11
4.17852786488e-05
-8.02542239746e-11
4.17853397146e-05
-1.0542930569e-10
4.17854175782e-05
-1.38441162034e-10
4.17855182691e-05
-1.81506034757e-10
4.17856491022e-05
-2.37536472472e-10
4.1785819009e-05
-3.10305824093e-10
4.17860393478e-05
-4.04645890723e-10
4.17863247052e-05
-5.26690479566e-10
4.17866937997e-05
-6.84267205431e-10
4.17871705903e-05
-8.87517176291e-10
4.17877857708e-05
-1.14960757779e-09
4.17885786297e-05
-1.48745925271e-09
4.17895989781e-05
-1.92244576205e-09
4.17909099335e-05
-2.48135352337e-09
4.1792592996e-05
-3.19896541575e-09
4.17947522866e-05
-4.11919404432e-09
4.17975203985e-05
-5.29816300368e-09
4.18010661607e-05
-6.80758521481e-09
4.18056047466e-05
-8.73900210866e-09
4.18114105872e-05
-1.1209426764e-08
4.18188335382e-05
-1.43686879049e-08
4.18283195485e-05
-1.840865827e-08
4.18404376794e-05
-2.35749913533e-08
4.1855915079e-05
-3.01829429739e-08
4.18756818298e-05
-3.86388198612e-08
4.19009291913e-05
-4.94679423414e-08
4.19331862694e-05
-6.33514152962e-08
4.19744214052e-05
-8.11767352642e-08
4.20271770645e-05
-1.04108218523e-07
4.20947511159e-05
-1.33684770732e-07
4.21814438357e-05
-1.71958597859e-07
4.22929002577e-05
-2.21697360401e-07
4.24365920085e-05
-2.86684858813e-07
4.26225074903e-05
-3.72179336258e-07
4.28641649395e-05
-4.85632821325e-07
4.31801377526e-05
-6.37859876047e-07
4.35964082587e-05
-8.45016207688e-07
4.41500865436e-05
-1.13211408851e-06
4.48953568571e-05
-1.53964046819e-06
4.59127060191e-05
-2.13686363996e-06
4.73214059536e-05
-3.05024360335e-06
4.92885343035e-05
-4.52444738822e-06
5.19953227155e-05
-7.04354527524e-06
5.53847089655e-05
-1.15434338829e-05
-1.9582396426e-05
5.81865968449e-05
5.3660854571e-05
8.65129148571e-06
5.59949398173e-05
1.46209299949e-05
5.62331401298e-05
1.39888025843e-05
5.54084389795e-05
1.09532682691e-05
5.4315760471e-05
7.65368420858e-06
5.33479191687e-05
4.97588820801e-06
5.26221908613e-05
3.09308228208e-06
5.21241020107e-05
1.87315494354e-06
5.17991082811e-05
1.11937824553e-06
5.15931658342e-05
6.65400841041e-07
5.14648285464e-05
3.95021496206e-07
5.13856199376e-05
2.34435096793e-07
5.13370253334e-05
1.38974477201e-07
5.13073436403e-05
8.21485583903e-08
5.12892866898e-05
4.83136052265e-08
5.12783488567e-05
2.8201590567e-08
5.12717562181e-05
1.62923077924e-08
5.12678059449e-05
9.28294986139e-09
5.12654557493e-05
5.19234682131e-09
5.12640691278e-05
2.83160031119e-09
5.12632596993e-05
1.48932496002e-09
5.12627935755e-05
7.4100513463e-10
5.12625291469e-05
3.3475517391e-10
5.12623834978e-05
1.22994849436e-10
5.12623047482e-05
1.84743597053e-11
5.12622640299e-05
-2.75346306246e-11
5.12622446541e-05
-4.37509542902e-11
5.12622366287e-05
-4.51133118687e-11
5.1262234361e-05
-4.01668959626e-11
5.12622347817e-05
-3.30976738275e-11
5.12622362996e-05
-2.5895412149e-11
5.12622380838e-05
-1.95554315395e-11
5.12622397415e-05
-1.45506879583e-11
5.12622411444e-05
-1.08144132778e-11
5.12622422874e-05
-7.94149631548e-12
5.12622431854e-05
-5.61064204426e-12
5.12622438523e-05
-3.78428630289e-12
5.12622443245e-05
-2.52923629197e-12
5.12622446597e-05
-1.77671187824e-12
5.12622449019e-05
-1.33423028128e-12
5.12622450707e-05
-1.04915702149e-12
5.12622451841e-05
-8.6652597486e-13
5.12622452646e-05
-7.63862637502e-13
5.12622453256e-05
-6.96124141191e-13
5.12622453756e-05
-6.30683607906e-13
5.12622454228e-05
-5.75762251538e-13
5.12622454691e-05
-5.59321878077e-13
5.12622455055e-05
-5.91939409245e-13
5.12622455253e-05
-6.55771282693e-13
5.12622455303e-05
-7.23884533121e-13
5.12622455248e-05
-7.8522804991e-13
5.12622455079e-05
-8.45679001772e-13
5.12622454771e-05
-9.07979868959e-13
5.12622454386e-05
-9.60869809957e-13
5.12622454118e-05
-9.92134658004e-13
5.12622453783e-05
-1.0101889609e-12
5.1262245346e-05
-1.03835774947e-12
5.12622453183e-05
-1.09580640106e-12
5.12622452963e-05
-1.17816127546e-12
5.12622452817e-05
-1.25700370781e-12
5.12622452785e-05
-1.30371849825e-12
5.12622452901e-05
-1.31549282857e-12
5.12622453144e-05
-1.315662946e-12
5.12622453426e-05
-1.32903600488e-12
5.12622453651e-05
-1.36057235989e-12
5.12622453765e-05
-1.39833823221e-12
5.1262245377e-05
-1.43105711956e-12
5.12622453686e-05
-1.45814125052e-12
5.12622453518e-05
-1.4860643566e-12
5.12622453252e-05
-1.51886697885e-12
5.12622452873e-05
-1.55839982234e-12
5.12622452366e-05
-1.60672787348e-12
5.12622451741e-05
-1.67077243087e-12
5.12622450934e-05
-1.73797509397e-12
5.12622450067e-05
-1.82036279745e-12
5.12622449113e-05
-1.87493725665e-12
5.12622447965e-05
-1.89992927011e-12
5.12622446665e-05
-1.92894775752e-12
5.12622445278e-05
-1.99255045109e-12
5.12622443846e-05
-2.08972569684e-12
5.12622442384e-05
-2.18725287149e-12
5.12622440889e-05
-2.2516238411e-12
5.12622439364e-05
-2.28493880672e-12
5.12622437826e-05
-2.32225365365e-12
5.12622436294e-05
-2.39157904834e-12
5.12622434778e-05
-2.48185212054e-12
5.1262243327e-05
-2.55537874956e-12
5.1262243177e-05
-2.58930224329e-12
5.12622430255e-05
-2.59744051651e-12
5.1262242877e-05
-2.61946315826e-12
5.12622427372e-05
-2.67313525839e-12
5.12622426088e-05
-2.75087012395e-12
5.12622424938e-05
-2.83476371647e-12
5.12622423996e-05
-2.91587881453e-12
5.12622423409e-05
-2.99667567486e-12
5.12622423334e-05
-3.08352013055e-12
5.12622423888e-05
-3.18640612442e-12
5.12622425221e-05
-3.32620132524e-12
5.12622427674e-05
-3.53544231988e-12
5.12622431808e-05
-3.84860851089e-12
5.12622438267e-05
-4.28113315531e-12
5.12622447875e-05
-4.86688791739e-12
5.12622461735e-05
-5.67195244219e-12
5.12622481769e-05
-6.81735973503e-12
5.12622510909e-05
-8.43865258201e-12
5.1262254846e-05
-1.02460331002e-11
5.12622598017e-05
-1.27868520062e-11
5.12622663884e-05
-1.62703420941e-11
5.12622752318e-05
-2.0976110657e-11
5.12622873517e-05
-2.72545727207e-11
5.12623030973e-05
-3.55751569013e-11
5.12623231189e-05
-4.65706056948e-11
5.12623491296e-05
-6.10801088534e-11
5.12623830288e-05
-8.01741129292e-11
5.12624272178e-05
-1.05173302104e-10
5.12624847378e-05
-1.37751430372e-10
5.12625594863e-05
-1.80167347576e-10
5.12626566153e-05
-2.35571952834e-10
5.12627825553e-05
-3.07432287456e-10
5.12629454754e-05
-4.00417725184e-10
5.12631558465e-05
-5.20639361586e-10
5.12634271012e-05
-6.75870029397e-10
5.12637764657e-05
-8.75998812107e-10
5.12642259455e-05
-1.13367032555e-09
5.12648036052e-05
-1.46514250211e-09
5.12655452567e-05
-1.89127149399e-09
5.12664965012e-05
-2.43866968168e-09
5.12677152482e-05
-3.14109398024e-09
5.126927515e-05
-4.04123653857e-09
5.12712698527e-05
-5.19379478711e-09
5.12738187968e-05
-6.66820828457e-09
5.12770739208e-05
-8.5531023975e-09
5.12812281998e-05
-1.09615743076e-08
5.12865268577e-05
-1.40376007075e-08
5.12932817181e-05
-1.79645531288e-08
5.13018892903e-05
-2.29766003675e-08
5.131285375e-05
-2.93732018757e-08
5.13268163622e-05
-3.75373781471e-08
5.13445933198e-05
-4.79596941853e-08
5.13672246535e-05
-6.12702090717e-08
5.13960373202e-05
-7.82806563676e-08
5.14327265794e-05
-1.00040490259e-07
5.14794623973e-05
-1.27912480043e-07
5.15390299617e-05
-1.63675967875e-07
5.16150151701e-05
-2.09670059635e-07
5.1712051542e-05
-2.68995003208e-07
5.18361540121e-05
-3.45800100625e-07
5.19951738759e-05
-4.45704934498e-07
5.21994235894e-05
-5.76428970144e-07
5.24625442436e-05
-7.48753457698e-07
5.28027166046e-05
-9.78032680935e-07
5.32443411007e-05
-1.28664107306e-06
5.38202911315e-05
-1.70806404492e-06
5.45746326485e-05
-2.29398209895e-06
5.55647510045e-05
-3.12698169344e-06
5.68584989155e-05
-4.34399158121e-06
5.85124374886e-05
-6.17838656204e-06
6.04925972748e-05
-9.02370559437e-06
6.24403478212e-05
-1.34911852753e-05
-2.02958260378e-05
6.31537759241e-05
5.27877311916e-05
5.86356028865e-06
5.58865351344e-05
1.15221267185e-05
5.77117075388e-05
1.21636291095e-05
5.84096448584e-05
1.02553308329e-05
5.84496029917e-05
7.61372608715e-06
5.82158582028e-05
5.20963211419e-06
5.79281208489e-05
3.38081940138e-06
5.76790674996e-05
2.1222080591e-06
5.74922413399e-05
1.30620392555e-06
5.73623211627e-05
7.9532069767e-07
5.72758683492e-05
4.81474056116e-07
5.72198556271e-05
2.90447689339e-07
5.71841653218e-05
1.74664848701e-07
5.71616694376e-05
1.04644626925e-07
5.71475960795e-05
6.23871421324e-08
5.71388415946e-05
3.6956286195e-08
5.71334214777e-05
2.17126434484e-08
5.71300802693e-05
1.26242638536e-08
5.71280294943e-05
7.24311928224e-09
5.71267764019e-05
4.08472972337e-09
5.71260145601e-05
2.25124397279e-09
5.71255539857e-05
1.20160645895e-09
5.71252772586e-05
6.11495526705e-10
5.71251124663e-05
2.87803476298e-10
5.71250149558e-05
1.15986132643e-10
5.71249581556e-05
2.93571537562e-11
5.71249249352e-05
-1.03286699547e-11
5.7124906171e-05
-2.6155204059e-11
5.71248957537e-05
-2.95728703897e-11
5.71248901519e-05
-2.7267028508e-11
5.71248872972e-05
-2.27806151307e-11
5.71248859465e-05
-1.79829878777e-11
5.71248853719e-05
-1.38192748252e-11
5.71248851781e-05
-1.05166859158e-11
5.71248851773e-05
-7.87628209952e-12
5.71248852681e-05
-5.69256572543e-12
5.71248853836e-05
-3.95790912206e-12
5.7124885489e-05
-2.73577772733e-12
5.71248855772e-05
-1.96157628258e-12
5.71248856419e-05
-1.46985161077e-12
5.71248856744e-05
-1.13476082853e-12
5.71248856816e-05
-9.0892214261e-13
5.71248856824e-05
-7.69170274505e-13
5.71248856892e-05
-6.79604201603e-13
5.71248856942e-05
-6.1082974255e-13
5.71248856874e-05
-5.61342869068e-13
5.71248856735e-05
-5.49575155231e-13
5.71248856614e-05
-5.85219526224e-13
5.71248856477e-05
-6.49753937868e-13
5.71248856211e-05
-7.14217090486e-13
5.71248855765e-05
-7.6831010204e-13
5.71248855176e-05
-8.22648243743e-13
5.71248854495e-05
-8.83934851833e-13
5.71248853729e-05
-9.3805949929e-13
5.71248852849e-05
-9.65820566613e-13
5.71248851861e-05
-9.74055591485e-13
5.71248850799e-05
-9.89733742465e-13
5.7124884976e-05
-1.04309733601e-12
5.71248848846e-05
-1.1316395107e-12
5.71248848097e-05
-1.2160774258e-12
5.71248847484e-05
-1.25671653479e-12
5.71248846935e-05
-1.25098254921e-12
5.7124884638e-05
-1.23233301091e-12
5.71248845778e-05
-1.2331047892e-12
5.71248845101e-05
-1.25439813118e-12
5.71248844305e-05
-1.27499512423e-12
5.71248843347e-05
-1.28168690992e-12
5.71248842201e-05
-1.2826500728e-12
5.71248840867e-05
-1.29388322466e-12
5.71248839359e-05
-1.3206032367e-12
5.71248837685e-05
-1.35748758546e-12
5.71248835861e-05
-1.40092573395e-12
5.71248833892e-05
-1.45576299701e-12
5.71248831852e-05
-1.51982904468e-12
5.71248829599e-05
-1.58712363783e-12
5.71248827106e-05
-1.62477157421e-12
5.71248824435e-05
-1.63760112154e-12
5.71248821564e-05
-1.64930841482e-12
5.71248818543e-05
-1.69877013072e-12
5.71248815474e-05
-1.79325571248e-12
5.71248812412e-05
-1.89695141431e-12
5.71248809332e-05
-1.96663492771e-12
5.71248806167e-05
-1.99692865758e-12
5.71248802901e-05
-2.02421872967e-12
5.71248799595e-05
-2.08465120445e-12
5.71248796312e-05
-2.17174886719e-12
5.71248793018e-05
-2.24229788366e-12
5.71248789543e-05
-2.25841044642e-12
5.71248785944e-05
-2.25154168795e-12
5.71248782516e-05
-2.28266725541e-12
5.71248779172e-05
-2.33678216094e-12
5.71248775935e-05
-2.42505226826e-12
5.71248772914e-05
-2.53640962001e-12
5.71248770261e-05
-2.65427262148e-12
5.71248768095e-05
-2.76905918551e-12
5.71248766449e-05
-2.88736151428e-12
5.71248765324e-05
-3.03570535057e-12
5.71248764811e-05
-3.25056171732e-12
5.71248765044e-05
-3.55082689136e-12
5.71248767086e-05
-4.04236637218e-12
5.7124877206e-05
-4.74983284229e-12
5.7124878039e-05
-5.66279918264e-12
5.71248792764e-05
-6.88680144903e-12
5.71248810072e-05
-8.54287201383e-12
5.71248833467e-05
-1.07684532081e-11
5.712488688e-05
-1.37529939781e-11
5.71248918655e-05
-1.7751276178e-11
5.71248986789e-05
-2.30970427405e-11
5.71249078509e-05
-3.01860007768e-11
5.71249201081e-05
-3.95301208865e-11
5.71249364497e-05
-5.18939997716e-11
5.71249580999e-05
-6.81854205572e-11
5.71249865377e-05
-8.95056615634e-11
5.71250236978e-05
-1.17340674972e-10
5.71250720769e-05
-1.53550674075e-10
5.71251348497e-05
-2.00511503872e-10
5.71252160412e-05
-2.6135194394e-10
5.71253207145e-05
-3.40241580648e-10
5.71254555584e-05
-4.42258251713e-10
5.71256291145e-05
-5.73944972546e-10
5.71258522331e-05
-7.43727865221e-10
5.71261387632e-05
-9.62350114797e-10
5.71265064386e-05
-1.24359507282e-09
5.71269777771e-05
-1.60495895989e-09
5.71275814045e-05
-2.06880504369e-09
5.71283537513e-05
-2.66366957268e-09
5.71293410579e-05
-3.42591660989e-09
5.71306019534e-05
-4.40183329547e-09
5.71322109776e-05
-5.65016698278e-09
5.71342627259e-05
-7.24560096026e-09
5.71368773818e-05
-9.28299368486e-09
5.71402074458e-05
-1.18832223676e-08
5.71444462959e-05
-1.52003070298e-08
5.71498390826e-05
-1.94301505993e-08
5.71566965389e-05
-2.48219095334e-08
5.7165412671e-05
-3.16929283529e-08
5.71764872265e-05
-4.04479825465e-08
5.71905538522e-05
-5.16039580126e-08
5.72084159225e-05
-6.58216544347e-08
5.72310928057e-05
-8.39471945844e-08
5.72598789234e-05
-1.07066876434e-07
5.7296418693e-05
-1.36580176487e-07
5.73428029093e-05
-1.74296658542e-07
5.7401693351e-05
-2.22566519373e-07
5.74764831172e-05
-2.84459877797e-07
5.75715032636e-05
-3.64015054499e-07
5.76922899639e-05
-4.66586773817e-07
5.78459288511e-05
-5.99344092112e-07
5.80414940861e-05
-7.71994439471e-07
5.82905950164e-05
-9.97854191116e-07
5.86080237133e-05
-1.29546122779e-06
5.90124321331e-05
-1.69104962994e-06
5.95267812285e-05