/*--------------------------------*- C++ -*----------------------------------*\
| =========                 |                                                 |
| \\      /  F ield         | OpenFOAM: The Open Source CFD Toolbox           |
|  \\    /   O peration     | Version:  2106                                  |
|   \\  /    A nd           | Website:  www.openfoam.com                      |
|    \\/     M anipulation  |                                                 |
\*---------------------------------------------------------------------------*/
FoamFile
{
    version     2.0;
    format      ascii;
    arch        "LSB;label=32;scalar=64";
    class       surfaceScalarField;
    location    "0.39";
    object      phi;
}
// * * * * * * * * * * * * * * * * * * * * * * * * * * * * * * * * * * * * * //

dimensions      [0 3 -1 0 0 0 0];

oriented        oriented;

internalField   nonuniform List<scalar> 
22100
(
3.38461202226e-05
1.61538797733e-05
2.24572094561e-05
1.13889104875e-05
1.62585523396e-05
6.19865688894e-06
1.27977751536e-05
3.46077698428e-06
1.08046411051e-05
1.99313387102e-06
9.60458794039e-06
1.20005301103e-06
8.85132007897e-06
7.53267736297e-07
8.36435120046e-06
4.86968781498e-07
8.04433328668e-06
3.20017839121e-07
7.8328384835e-06
2.11494747491e-07
7.69339532477e-06
1.3944311408e-07
7.60223844165e-06
9.11568386059e-08
7.54347564851e-06
5.87627392014e-08
7.50633869715e-06
3.71368803079e-08
7.48349911925e-06
2.28394817842e-08
7.46997819191e-06
1.35207983096e-08
7.4624134336e-06
7.56459339674e-09
7.45854524583e-06
3.8679940091e-09
7.45682605971e-06
1.71895354347e-09
7.45641922316e-06
4.06595135648e-10
7.4567688193e-06
-3.49852327536e-10
7.45745477657e-06
-6.86231236827e-10
7.45821289041e-06
-7.58390023541e-10
7.45893796247e-06
-7.25349214485e-10
7.45958204042e-06
-6.44354985505e-10
7.46012574365e-06
-5.43983005234e-10
7.46056762749e-06
-4.42173544817e-10
7.4609161692e-06
-3.4882799384e-10
7.46118426827e-06
-2.68395116178e-10
7.46138603037e-06
-2.02053679652e-10
7.46153483336e-06
-1.49095576783e-10
7.46164238382e-06
-1.07805009665e-10
7.46171842699e-06
-7.62649068183e-11
7.46177108955e-06
-5.28478190694e-11
7.46180433968e-06
-3.33948370476e-11
7.46182318524e-06
-1.89152401859e-11
7.46183233878e-06
-9.20906619805e-12
7.46183524596e-06
-2.94241400382e-12
7.46183384382e-06
1.37850208673e-12
7.46182927488e-06
4.58940817451e-12
7.46182243273e-06
6.86860852976e-12
7.46181393191e-06
8.54680794073e-12
7.46180411037e-06
9.85101587111e-12
7.46179314071e-06
1.09716726485e-11
7.46178105881e-06
1.20346125044e-11
7.46176770684e-06
1.32149184369e-11
7.4617529118e-06
1.46324870245e-11
7.46173636582e-06
1.63425872835e-11
7.46171768757e-06
1.84658816994e-11
7.461696343e-06
2.11272721574e-11
7.46167173121e-06
2.44008880886e-11
7.46164314509e-06
2.83921258043e-11
7.46160980632e-06
3.32002999147e-11
7.46157091449e-06
3.88583124302e-11
7.4615255432e-06
4.53521813392e-11
7.46147287457e-06
5.2669132437e-11
7.46141227762e-06
6.0620498818e-11
7.46134354976e-06
6.87833479769e-11
7.46126762893e-06
7.61792943388e-11
7.46118678878e-06
8.09907296476e-11
7.4611073222e-06
7.94875391432e-11
7.46104159778e-06
6.59976933985e-11
7.46099704087e-06
4.48135733638e-11
7.46099301237e-06
4.15601050085e-12
7.46106558666e-06
-7.243191669e-11
7.46127296675e-06
-2.07302932062e-10
7.46170975221e-06
-4.366439302e-10
7.46252592295e-06
-8.16116473623e-10
7.46395673335e-06
-1.43082087628e-09
7.46635759225e-06
-2.40092213977e-09
7.47017767978e-06
-3.82019836427e-09
7.47662880131e-06
-6.45125230161e-09
7.4874011226e-06
-1.0772454555e-08
7.50557673325e-06
-1.81757244649e-08
7.53876131641e-06
-3.31846681477e-08
7.60797154606e-06
-6.92102783318e-08
7.77461952453e-06
-1.6664801187e-07
8.22948972866e-06
-4.54870309213e-07
9.69698594331e-06
-1.46749650085e-06
-5.45089739984e-06
1.5147883304e-05
5.02175946533e-05
1.59362848607e-05
4.42441110258e-05
1.73623936793e-05
3.77795005623e-05
1.26632669831e-05
3.26461427649e-05
8.59413444827e-06
2.89380903681e-05
5.70118598719e-06
2.63596197255e-05
3.77852341856e-06
2.45875151162e-05
2.52537215155e-06
2.33734729065e-05
1.70101083488e-06
2.25435237492e-05
1.14996686744e-06
2.19782149915e-05
7.76803388966e-07
2.15955124136e-05
5.2214557202e-07
2.13387358074e-05
3.47933305659e-07
2.11684942363e-05
2.29004138774e-07
2.10573365586e-05
1.48294348119e-07
2.09861485497e-05
9.40272415879e-08
2.09416760482e-05
5.79930150653e-08
2.09147940855e-05
3.44462454245e-08
2.08992948057e-05
1.93669360084e-08
2.08910708508e-05
9.94256915735e-09
2.08872703659e-05
4.20673156876e-09
2.08862011251e-05
7.19033968435e-10
2.08864465907e-05
-9.3203666766e-10
2.08873177533e-05
-1.62990541147e-09
2.08884569755e-05
-1.86491400199e-09
2.08896300181e-05
-1.81774810792e-09
2.08907127151e-05
-1.62704830166e-09
2.08916500076e-05
-1.37985260235e-09
2.08924272437e-05
-1.12644129522e-09
2.08930521756e-05
-8.93713006838e-10
2.08935440332e-05
-6.9428884877e-10
2.08939276032e-05
-5.33029549815e-10
2.08942288939e-05
-4.09458173758e-10
2.08944396662e-05
-2.87351838194e-10
2.08945865593e-05
-1.99993970295e-10
2.08946868402e-05
-1.33909776723e-10
2.08947521732e-05
-8.44543967707e-11
2.08947927246e-05
-4.99198111486e-11
2.08948166593e-05
-2.69868396023e-11
2.08948287968e-05
-1.08046424383e-11
2.08948320674e-05
1.31613637931e-12
2.08948288487e-05
1.0089232401e-11
2.08948208013e-05
1.65704114782e-11
2.08948090377e-05
2.15210877591e-11
2.08947942389e-05
2.55823034908e-11
2.08947768701e-05
2.92347129083e-11
2.08947570036e-05
3.28113116426e-11
2.08947346333e-05
3.6647467225e-11
2.08947097006e-05
4.09371868235e-11
2.08946820304e-05
4.58464369965e-11
2.08946513635e-05
5.15892469344e-11
2.08946175092e-05
5.81666436364e-11
2.0894580301e-05
6.5559227047e-11
2.08945397495e-05
7.36803604833e-11
2.08944962399e-05
8.23687536118e-11
2.08944506191e-05
9.10517945008e-11
2.0894404696e-05
9.87648218862e-11
2.08943619095e-05
1.03681837544e-10
2.08943280366e-05
1.02726556817e-10
2.08943127634e-05
9.17275073273e-11
2.08943315376e-05
6.27351463597e-11
2.08944110641e-05
4.42124311408e-14
2.08946002422e-05
-1.23171987014e-10
2.08949676163e-05
-3.22507616323e-10
2.08956319673e-05
-6.60119071583e-10
2.08967001051e-05
-1.14046823823e-09
2.08983503028e-05
-1.85755655878e-09
2.09009402969e-05
-3.02679227257e-09
2.09050180152e-05
-4.89398755291e-09
2.09114525756e-05
-7.86552527232e-09
2.09216675312e-05
-1.26159989236e-08
2.0938152879e-05
-2.03056168016e-08
2.0965052778e-05
-3.33512213829e-08
2.10093063254e-05
-5.50260622683e-08
2.10840836932e-05
-9.29531657916e-08
2.1215305939e-05
-1.64407022198e-07
2.14558704973e-05
-3.09774976409e-07
2.19136112078e-05
-6.24388826913e-07
2.28003947071e-05
-1.34165370593e-06
2.44439519374e-05
-3.11105351751e-06
-7.03680292206e-06
2.6029854338e-05
5.3517105091e-05
1.24191795429e-05
5.29349676591e-05
1.79445307236e-05
4.96538390884e-05
1.594439523e-05
4.58401800603e-05
1.24077931887e-05
4.24400907241e-05
9.10127507697e-06
3.97291704682e-05
6.48944346738e-06
3.76873037409e-05
4.56723871222e-06
3.61976607078e-05
3.19065373658e-06
3.51326099058e-05
2.21501756391e-06
3.43823647144e-05
1.52704848742e-06
3.38606236066e-05
1.04388658266e-06
3.35023432447e-05
7.06213556255e-07
3.32595982142e-05
4.71749029035e-07
3.30975877599e-05
3.10304619081e-07
3.29913315062e-05
2.00283262449e-07
3.29230894155e-05
1.26234827233e-07
3.28804012139e-05
7.71341280181e-08
3.28546157856e-05
4.51520075216e-08
3.28397883684e-05
2.47696015993e-08
3.28318615163e-05
1.21331808713e-08
3.28279916957e-05
4.58845464858e-09
3.28269926918e-05
6.65486968306e-11
3.28271730982e-05
-1.81071876222e-09
3.28280211261e-05
-2.71336019428e-09
3.28291365022e-05
-2.93354255989e-09
3.28302833418e-05
-2.77431020165e-09
3.28313388892e-05
-2.43583975581e-09
3.28322488499e-05
-2.03684254878e-09
3.28329983799e-05
-1.64368239188e-09
3.28335935864e-05
-1.28990288644e-09
3.28340493978e-05
-9.89225345233e-10
3.28343839123e-05
-7.44301849094e-10
3.28346498661e-05
-5.53569193533e-10
3.28348657148e-05
-4.16074279599e-10
3.28350126599e-05
-2.8096867858e-10
3.28351116204e-05
-1.83524839576e-10
3.28351772391e-05
-1.15542531346e-10
3.28352189699e-05
-6.86856011704e-11
3.2835243691e-05
-3.54743845894e-11
3.28352553417e-05
-1.02960219667e-11
3.28352574554e-05
7.9614715705e-12
3.28352525318e-05
2.14617337196e-11
3.28352423838e-05
3.16206494178e-11
3.28352281657e-05
3.96093347035e-11
3.28352107247e-05
4.65043097803e-11
3.28351905346e-05
5.29171181198e-11
3.28351678464e-05
5.9218797628e-11
3.28351429251e-05
6.57475927291e-11
3.28351159326e-05
7.27374052059e-11
3.2835086866e-05
8.05080270357e-11
3.28350560459e-05
8.8833202222e-11
3.2835024093e-05
9.74073875348e-11
3.28349920844e-05
1.05715488586e-10
3.28349618173e-05
1.12715667417e-10
3.2834936304e-05
1.16667548161e-10
3.2834920189e-05
1.15034320732e-10
3.28349207326e-05
1.03580516204e-10
3.28349493233e-05
7.4397690606e-11
3.28350232259e-05
1.7719017597e-11
3.28351725911e-05
-8.65785682523e-11
3.28354485883e-05
-2.75742647213e-10
3.28359409391e-05
-6.15177454324e-10
3.28366612408e-05
-1.04267502865e-09
3.28377070907e-05
-1.70596787608e-09
3.28393381317e-05
-2.77156181204e-09
3.28419285764e-05
-4.44802745495e-09
3.28459826256e-05
-7.0808684747e-09
3.28523147767e-05
-1.12261189702e-08
3.28622378836e-05
-1.77886262616e-08
3.28779159234e-05
-2.82940837407e-08
3.29030083822e-05
-4.53981739314e-08
3.29428642675e-05
-7.32072412836e-08
3.30073099989e-05
-1.19471944763e-07
3.3113321201e-05
-1.98964491886e-07
3.32898991151e-05
-3.40985043192e-07
3.3585227116e-05
-6.05103120084e-07
3.4070350296e-05
-1.10951225828e-06
3.48113521918e-05
-2.08265561444e-06
3.56719799218e-05
-3.97167939534e-06
-7.10472367332e-06
3.57399064694e-05
5.35105662114e-05
8.90861310897e-06
5.55742215574e-05
1.58808749783e-05
5.52424814729e-05
1.62761349764e-05
5.3597784587e-05
1.40524897712e-05
5.15418460266e-05
1.11572133742e-05
4.95802779958e-05
8.45101127563e-06
4.79243487543e-05
6.22316777212e-06
4.66181367019e-05
4.49686564056e-06
4.56304637575e-05
3.20269038498e-06
4.49051146957e-05
2.25239744497e-06
4.43840874069e-05
1.56491376897e-06
4.40166911598e-05
1.07360969279e-06
4.37619645593e-05
7.2647550058e-07
4.35882658238e-05
4.84003196689e-07
4.34718663046e-05
3.16682587601e-07
4.33953560429e-05
2.02744865884e-07
4.33461855412e-05
1.26304372093e-07
4.33154476794e-05
7.58895861166e-08
4.32969110403e-05
4.33059328427e-08
4.32862846807e-05
2.27592154543e-08
4.32806815402e-05
1.01912551167e-08
4.32778735653e-05
2.87419785466e-09
4.32770454495e-05
-9.82947637465e-10
4.32772630304e-05
-2.93128900853e-09
4.32779502479e-05
-3.62112394463e-09
4.32788129825e-05
-3.63740822248e-09
4.32796854601e-05
-3.30868820684e-09
4.32804825538e-05
-2.8343236544e-09
4.3281167937e-05
-2.32943437601e-09
4.32817333831e-05
-1.85571790822e-09
4.32821857399e-05
-1.44192079341e-09
4.32825377468e-05
-1.09661827398e-09
4.32827991216e-05
-8.15227035262e-10
4.32829742673e-05
-5.91454719906e-10
4.32831069961e-05
-4.13888747079e-10
4.3283192294e-05
-2.68905184876e-10
4.32832461134e-05
-1.69419354969e-10
4.32832858495e-05
-1.08382666495e-10
4.32833102842e-05
-5.99142431824e-11
4.32833223509e-05
-2.23502531577e-11
4.32833254728e-05
4.85525464644e-12
4.32833215936e-05
2.53521321186e-11
4.32833123936e-05
4.08655541868e-11
4.32832990544e-05
5.29643957148e-11
4.32832822302e-05
6.32522230705e-11
4.32832623537e-05
7.25920813269e-11
4.32832398031e-05
8.15334636814e-11
4.32832148915e-05
9.04208077647e-11
4.32831879797e-05
9.94103681974e-11
4.32831597448e-05
1.08450490507e-10
4.32831307811e-05
1.17580772694e-10
4.3283102067e-05
1.25955868185e-10
4.32830750983e-05
1.32574410643e-10
4.32830520022e-05
1.35780062802e-10
4.32830357239e-05
1.32986036959e-10
4.32830308082e-05
1.19900676683e-10
4.32830453213e-05
8.90954128712e-11
4.32830912862e-05
2.85975236816e-11
4.32831881144e-05
-7.87352451055e-11
4.32833517733e-05
-2.49790154419e-10
4.32835979461e-05
-5.21884624386e-10
4.32840450702e-05
-1.06210363571e-09
4.32848222983e-05
-1.81978928409e-09
4.32860820976e-05
-2.96549175681e-09
4.32880323654e-05
-4.72166209767e-09
4.32910235932e-05
-7.43905455082e-09
4.32956154974e-05
-1.16727301203e-08
4.33026867926e-05
-1.8297473186e-08
4.33136195004e-05
-2.87214672894e-08
4.33305711435e-05
-4.5245870268e-08
4.33568499239e-05
-7.16770728017e-08
4.33980240497e-05
-1.14381444771e-07
4.34629406431e-05
-1.84388613059e-07
4.35653157996e-05
-3.01339721879e-07
4.37250895028e-05
-5.00758812313e-07
4.39668330212e-05
-8.4684674437e-07
4.43071720613e-05
-1.44985170167e-06
4.47073500629e-05
-2.48283459956e-06
4.49264039799e-05
-4.19073440504e-06
-6.5752466813e-06
4.43969300209e-05
5.27351377478e-05
6.17347514502e-06
5.57309337357e-05
1.2885078568e-05
5.73114731914e-05
1.46955951782e-05
5.7610990353e-05
1.37529722991e-05
5.71335209061e-05
1.1634682549e-05
5.63194661802e-05
9.26506576863e-06
5.54489858827e-05
7.09364788061e-06
5.46629752591e-05
5.28287611419e-06
5.40136796808e-05
3.85198583816e-06
5.35061483671e-05
2.75992864876e-06
5.3124252494e-05
1.94680953507e-06
5.28449830128e-05
1.35287905836e-06
5.26454368368e-05
9.26021541866e-07
5.2505712656e-05
6.23727212455e-07
5.24097179346e-05
4.12677104467e-07
5.2345011942e-05
2.67450603137e-07
5.23022741057e-05
1.69041918171e-07
5.22746868994e-05
1.03476482395e-07
5.22573622713e-05
6.06302237193e-08
5.22468534516e-05
3.32676767791e-08
5.22407535592e-05
1.62907857916e-08
5.22374444209e-05
6.18297386858e-09
5.22359454159e-05
5.15699713774e-10
5.22354370488e-05
-2.42329851874e-09
5.22355015201e-05
-3.68598145926e-09
5.2235846456e-05
-3.98272060887e-09
5.22363001575e-05
-3.76273060246e-09
5.22367659594e-05
-3.30049242686e-09
5.22371927981e-05
-2.75661237697e-09
5.22375579497e-05
-2.22119553223e-09
5.22378547219e-05
-1.73901422801e-09
5.22380859303e-05
-1.32811549238e-09
5.2238261858e-05
-9.9139481263e-10
5.22383944306e-05
-7.24257646181e-10
5.22384945156e-05
-5.14126387014e-10
5.22385788192e-05
-3.53336178735e-10
5.22386442755e-05
-2.3488987021e-10
5.2238686393e-05
-1.505462842e-10
5.22387192015e-05
-9.26723130638e-11
5.22387346177e-05
-3.77054663993e-11
5.2238739907e-05
-3.95325894791e-13
5.22387376192e-05
2.75875478158e-11
5.22387295656e-05
4.88303248707e-11
5.22387172618e-05
6.52059982853e-11
5.22387015114e-05
7.89379151428e-11
5.22386828846e-05
9.11365554341e-11
5.22386618804e-05
1.02455227892e-10
5.22386391071e-05
1.13081606056e-10
5.22386157742e-05
1.22570013811e-10
5.22385901265e-05
1.34072803155e-10
5.22385634642e-05
1.4417476437e-10
5.22385371033e-05
1.52315158456e-10
5.22385126355e-05
1.57061577244e-10
5.22384927665e-05
1.55741059624e-10
5.2238483228e-05
1.4270402495e-10
5.22384927206e-05
1.10466746457e-10
5.22385248503e-05
5.71274952668e-11
5.22386030608e-05
-4.94516617383e-11
5.22387244562e-05
-1.99980587131e-10
5.2238921644e-05
-4.46713706104e-10
5.22392613525e-05
-8.61040249593e-10
5.22397822313e-05
-1.58287894535e-09
5.22405589693e-05
-2.59634534197e-09
5.22417245654e-05
-4.13089327818e-09
5.22434823084e-05
-6.47936543453e-09
5.22461336694e-05
-1.00903848507e-08
5.22501307252e-05
-1.56697377601e-08
5.22561647603e-05
-2.43315136346e-08
5.22652947317e-05
-3.78514993815e-08
5.22791380422e-05
-5.90892820976e-08
5.23001522494e-05
-9.2691429746e-08
5.23320524212e-05
-1.46281771506e-07
5.23801806517e-05
-2.32516978945e-07
5.24514603545e-05
-3.72619550906e-07
5.25527505814e-05
-6.02049126407e-07
5.26845899484e-05
-9.78686069628e-07
5.2824746183e-05
-1.5900078138e-06
5.28917330434e-05
-2.54982181427e-06
5.2673112314e-05
-3.97211506394e-06
-5.76637608691e-06
5.18642430682e-05
5.19834862158e-05
4.18998870439e-06
5.50586632525e-05
9.80990108213e-06
5.76386121047e-05
1.21156459671e-05
5.93259016989e-05
1.2065682376e-05
6.02280134225e-05
1.07325705358e-05
6.05929243364e-05
8.90015460567e-06
6.06482810287e-05
7.03829098086e-06
6.05531863814e-05
5.37797059459e-06
6.0402951653e-05
4.00222043312e-06
6.02479110143e-05
2.91496916772e-06
6.01107853666e-05
2.08393506984e-06
5.9999025727e-05
1.46463857838e-06
5.99125104242e-05
1.01253670629e-06
5.98479183818e-05
6.88319089932e-07
5.98010146375e-05
4.59580657604e-07
5.97677297684e-05
3.00735236003e-07
5.97445881528e-05
1.92183252022e-07
5.97288093108e-05
1.19255007516e-07
5.9718260844e-05
7.11783629302e-08
5.97113543097e-05
4.01738591428e-08
5.97069346015e-05
2.07101250179e-08
5.97042003392e-05
8.916862739e-09
5.97025909343e-05
2.12472587888e-09
5.9701686022e-05
-1.51875700396e-09
5.97012273475e-05
-3.22767037402e-09
5.9701037436e-05
-3.7931878227e-09
5.97010007594e-05
-3.72644733961e-09
5.97010446661e-05
-3.34477769697e-09
5.97011254244e-05
-2.83775762854e-09
5.97012173844e-05
-2.31351211508e-09
5.97013066833e-05
-1.82861494106e-09
5.9701386706e-05
-1.40840591426e-09
5.97014560246e-05
-1.06095308148e-09
5.97015152691e-05
-7.83663995204e-10
5.97015652185e-05
-5.64185840552e-10
5.97016047807e-05
-3.92907959389e-10
5.97016324132e-05
-2.62548095433e-10
5.97016477379e-05
-1.65806286764e-10
5.97016461059e-05
-9.09588175888e-11
5.97016379886e-05
-2.95110443687e-11
5.97016314679e-05
6.22472285979e-12
5.97016225158e-05
3.66969368001e-11
5.97016119515e-05
5.92876657877e-11
5.9701600435e-05
7.66169660938e-11
5.97015866526e-05
9.24891267466e-11
5.97015705232e-05
1.07040709321e-10
5.970155214e-05
1.20639844713e-10
5.97015315577e-05
1.33448314983e-10
5.97015085461e-05
1.4544689512e-10
5.97014861929e-05
1.56186465512e-10
5.97014649192e-05
1.65327979438e-10
5.97014458181e-05
1.71339077925e-10
5.97014305211e-05
1.72303004246e-10
5.9701420512e-05
1.65732130311e-10
5.97014141853e-05
1.49022115573e-10
5.97014063837e-05
1.18708363756e-10
5.97014121829e-05
5.13095706041e-11
5.97014248588e-05
-6.15144500395e-11
5.97015118974e-05
-2.86964538563e-10
5.97017030084e-05
-6.38001788925e-10
5.97020049639e-05
-1.16285342401e-09
5.97023943795e-05
-1.97235798811e-09
5.97029760521e-05
-3.17800434895e-09
5.97038323334e-05
-4.98714971313e-09
5.97050773327e-05
-7.7243250967e-09
5.97068761742e-05
-1.18892727416e-08
5.97094671241e-05
-1.82606821899e-08
5.97131942752e-05
-2.8058666003e-08
5.97185474306e-05
-4.32046938936e-08
5.97262073594e-05
-6.67492705898e-08
5.97370753449e-05
-1.03559514764e-07
5.97522135534e-05
-1.61420123727e-07
5.97724590001e-05
-2.52762561342e-07
5.97972189971e-05
-3.97379682786e-07
5.98213357606e-05
-6.26166070151e-07
5.98279342428e-05
-9.85284732538e-07
5.97749783048e-05
-1.53705185463e-06
5.95745620692e-05
-2.34940565317e-06
5.9068900472e-05
-3.46645449496e-06
-4.79533782375e-06
5.80978627141e-05
5.14373051182e-05
2.75268334475e-06
5.42658198453e-05
6.98138588224e-06
5.72496421139e-05
9.13182331617e-06
5.97900260963e-05
9.5252980432e-06
6.17201262528e-05
8.80247007135e-06
6.30883009053e-05
7.53197969035e-06
6.40167142159e-05
6.1098774501e-06
6.4629233806e-05
4.76545081869e-06
6.50258005996e-05
3.60565349718e-06
6.52790750384e-05
2.66169461096e-06
6.54389699679e-05
1.92404003428e-06
6.5538686686e-05
1.36492175398e-06
6.55999251068e-05
9.51298163428e-07
6.56367397915e-05
6.5150425737e-07
6.56581907442e-05
4.38129531906e-07
6.56700987954e-05
2.88826980971e-07
6.56761878327e-05
1.86093970766e-07
6.56788239117e-05
1.16618645179e-07
6.56794941065e-05
7.05078625504e-08
6.56791176464e-05
4.05500008171e-08
6.56782499808e-05
2.15774429562e-08
6.56772187861e-05
9.94768655638e-09
6.56762092576e-05
3.13388031952e-09
6.56752996861e-05
-6.09537925248e-10
6.56745307123e-05
-2.4590731675e-09
6.56739020679e-05
-3.16491493518e-09
6.56734028869e-05
-3.22762821399e-09
6.56730157111e-05
-2.95795042426e-09
6.56727215394e-05
-2.54393669517e-09
6.56725022216e-05
-2.09453725043e-09
6.56723416557e-05
-1.66836442628e-09
6.56722261843e-05
-1.293187697e-09
6.56721436578e-05
-9.78659486033e-10
6.567208349e-05
-7.23652815683e-10
6.56720398958e-05
-5.2067917664e-10
6.56720086388e-05
-3.61695304658e-10
6.56719836212e-05
-2.37541347264e-10
6.56719621806e-05
-1.44348332675e-10
6.56719472123e-05
-7.5963309075e-11
6.56719454499e-05
-2.77177354415e-11
6.56719439961e-05
7.82061861197e-12
6.56719365829e-05
4.41057290329e-11
6.56719268093e-05
6.9249276082e-11
6.56719143878e-05
8.91452043801e-11
6.56719003745e-05
1.0653213207e-10
6.56718848577e-05
1.22568959061e-10
6.5671867695e-05
1.37794910934e-10
6.56718488374e-05
1.52293334539e-10
6.56718287641e-05
1.65496481866e-10
6.56718095074e-05
1.75508028774e-10
6.56717901224e-05
1.84782042545e-10
6.56717711125e-05
1.90417758254e-10
6.56717536203e-05
1.89851991619e-10
6.56717394871e-05
1.79810867893e-10
6.56717330832e-05
1.55646623404e-10
6.56717408071e-05
1.10888452739e-10
6.56717471858e-05
4.51226294165e-11
6.56717828133e-05
-9.6982800355e-11
6.56718513098e-05
-3.55056015393e-10
6.56719512132e-05
-7.37680731711e-10
6.56721035791e-05
-1.31502624815e-09
6.56723153344e-05
-2.18396646858e-09
6.56726032782e-05
-3.46580840816e-09
6.56729839713e-05
-5.36786921834e-09
6.56734686229e-05
-8.20896990958e-09
6.56740550615e-05
-1.24757308967e-08
6.56747134338e-05
-1.8919092909e-08
6.56753585403e-05
-2.87038312533e-08
6.56757899613e-05
-4.36362165066e-08
6.56755808422e-05
-6.65402671756e-08
6.56738628347e-05
-1.01841613009e-07
6.56689035932e-05
-1.56460999919e-07
6.56571712978e-05
-2.41030404439e-07
6.56315411521e-05
-3.71749689238e-07
6.5577868837e-05
-5.72493934751e-07
6.54689340071e-05
-8.76350112273e-07
6.52555933161e-05
-1.32371124199e-06
6.48578444517e-05
-1.95165679108e-06
6.41632944077e-05
-2.77190516039e-06
-3.71391054132e-06
6.30818672423e-05
5.10850421097e-05
1.66764098563e-06
5.36118438262e-05
4.45458367896e-06
5.66873153522e-05
6.05635139107e-06
5.96894449991e-05
6.52316802713e-06
6.22997252858e-05
6.1921894558e-06
6.4413686571e-05
5.41801812023e-06
6.60471824888e-05
4.47638129807e-06
6.7268613863e-05
3.54401925447e-06
6.81598927779e-05
2.71437442269e-06
6.87977593029e-05
2.02382795313e-06
6.9246743645e-05
1.47505557395e-06
6.95579624729e-05
1.05370281136e-06
6.97704291603e-05
7.38831353125e-07
6.99131722453e-05
5.08761026964e-07
7.00073833868e-05
3.43918213671e-07
7.00682929939e-05
2.27917166492e-07
7.01066950661e-05
1.47691654881e-07
7.01301374012e-05
9.31760292766e-08
7.01438265396e-05
5.68184086282e-08
7.01513026334e-05
3.30735660974e-08
7.01549350828e-05
1.79446363429e-08
7.01562828238e-05
8.59957994702e-09
7.01563546804e-05
3.0616640898e-09
7.01557625192e-05
-1.7794816797e-11
7.01549016042e-05
-1.59851417401e-09
7.01539779092e-05
-2.24161255858e-09
7.01531091878e-05
-2.35927590065e-09
7.01523491067e-05
-2.19821375805e-09
7.01517148518e-05
-1.9100298148e-09
7.01512035943e-05
-1.58358050735e-09
7.01508024059e-05
-1.26744483912e-09
7.01504943258e-05
-9.85359624843e-10
7.01502617523e-05
-7.46251082857e-10
7.01500885077e-05
-5.50530396625e-10
7.01499616025e-05
-3.93843152489e-10
7.01498703641e-05
-2.70518866244e-10
7.01498077253e-05
-1.7490337367e-10
7.01497662382e-05
-1.02767448006e-10
7.01497377472e-05
-4.73381861116e-11
7.01497080321e-05
2.0908941639e-12
7.01496846566e-05
3.11615229778e-11
7.01496716282e-05
5.713948689e-11
7.01496612702e-05
7.95327290097e-11
7.01496514748e-05
9.88681256136e-11
7.01496415186e-05
1.16424203516e-10
7.01496310357e-05
1.32965633858e-10
7.01496198731e-05
1.48781026978e-10
7.01496081174e-05
1.63904966861e-10
7.01495956374e-05
1.77907478744e-10
7.01495809816e-05
1.90135624298e-10
7.01495660744e-05
1.99675294646e-10
7.01495518135e-05
2.04732947543e-10
7.01495389838e-05
2.02839067642e-10
7.01495280851e-05
1.90885629784e-10
7.0149518578e-05
1.65287673462e-10
7.01495078467e-05
1.22076243344e-10
7.01495021061e-05
5.05687933007e-11
7.01494910926e-05
-8.5814695231e-11
7.01495033602e-05
-3.67339552285e-10
7.01495274647e-05
-7.6158671167e-10
7.0149551807e-05
-1.33922273418e-09
7.01495550771e-05
-2.1870915406e-09
7.01495106059e-05
-3.42113476027e-09
7.01493651416e-05
-5.22228799599e-09
7.01490198671e-05
-7.86368156521e-09
7.01482998507e-05
-1.17557168231e-08
7.01469036642e-05
-1.75229366738e-08
7.01443201889e-05
-2.61203883912e-08
7.01396758714e-05
-3.89919698211e-08
7.01314904223e-05
-5.83549445557e-08
7.01172755258e-05
-8.76268595704e-08
7.00928789621e-05
-1.32064565249e-07
7.00512153041e-05
-1.993668691e-07
6.99803176049e-05
-3.00852115468e-07
6.98602315557e-05
-4.52408070611e-07
6.96585321061e-05
-6.74650909113e-07
6.93253384097e-05
-9.90517725619e-07
6.87911535169e-05
-1.41747191525e-06
6.79734688457e-05
-1.9542210208e-06
-2.55475499007e-06
6.68143131872e-05
5.08804129459e-05
7.87227781329e-07
5.31704654471e-05
2.16453067076e-06
5.6217748606e-05
3.00906781519e-06
5.94382682387e-05
3.30264800384e-06
6.2444967726e-05
3.18548961633e-06
6.50382508524e-05
2.82473469126e-06
6.71548641756e-05
2.35976771506e-06
6.88135624663e-05
1.88532074697e-06
7.00731683026e-05
1.45476840849e-06
7.10056651317e-05
1.09133097662e-06
7.16812613109e-05
7.99459266733e-07
7.21614205644e-05
5.7354343444e-07
7.24966013864e-05
4.03650400309e-07
7.27264778211e-05
2.78884443554e-07
7.28812765786e-05
1.89119278567e-07
7.29834661647e-05
1.25727366037e-07
7.30494097493e-05
8.17478195807e-08
7.30908116326e-05
5.17738626859e-08
7.3115905327e-05
3.17243992049e-08
7.31303895689e-05
1.85889791965e-08
7.31381439946e-05
1.01898513322e-08
7.31417641382e-05
4.97908938944e-09
7.31429515165e-05
1.87391236156e-09
7.3142804888e-05
1.28527107289e-10
7.31419813423e-05
-7.75327281197e-10
7.31408981396e-05
-1.15876994267e-09
7.3139782972e-05
-1.2444893281e-09
7.31387552689e-05
-1.17084179949e-09
7.3137867482e-05
-1.0225394368e-09
7.31371335019e-05
-8.49897894554e-10
7.313654598e-05
-6.80172036419e-10
7.31360875171e-05
-5.27131868109e-10
7.31357372623e-05
-3.96209930547e-10
7.31354745922e-05
-2.88035215217e-10
7.31352811487e-05
-2.0055045871e-10
7.31351413076e-05
-1.3077151246e-10
7.31350418516e-05
-7.54254889039e-11
7.31349702876e-05
-3.10779262469e-11
7.3134916971e-05
6.05884632354e-12
7.31348872821e-05
3.19833482527e-11
7.31348642249e-05
5.4401306161e-11
7.31348474003e-05
7.40992856238e-11
7.31348350387e-05
9.19643788055e-11
7.31348253025e-05
1.08639569903e-10
7.31348169402e-05
1.2481488884e-10
7.31348090446e-05
1.40867049671e-10
7.31348010582e-05
1.56836681502e-10
7.31347925444e-05
1.72464867917e-10
7.31347832259e-05
1.87214912315e-10
7.3134773075e-05
2.00233881275e-10
7.31347621618e-05
2.10504464577e-10
7.31347506241e-05
2.16231413103e-10
7.31347385698e-05
2.1476021005e-10
7.31347262932e-05
2.03181251523e-10
7.31347144706e-05
1.77362523525e-10
7.31347039697e-05
1.32821480921e-10
7.313468852e-05
6.65345990789e-11
7.31346659503e-05
-6.32315217839e-11
7.31346252685e-05
-3.26399986407e-10
7.3134560115e-05
-6.96291714448e-10
7.31344469093e-05
-1.2259302185e-09
7.31342424747e-05
-1.9826004224e-09
7.3133878834e-05
-3.05741542666e-09
7.31332411467e-05
-4.58445880818e-09
7.31321364921e-05
-6.75892484092e-09
7.31302433072e-05
-9.86246268907e-09
7.31270341968e-05
-1.43138096714e-08
7.31216544599e-05
-2.07406512181e-08
7.31126920668e-05
-3.00295815882e-08
7.30978430545e-05
-4.3506020209e-08
7.30734006992e-05
-6.31846516738e-08
7.30334695228e-05
-9.213356864e-08
7.29685391148e-05
-1.34436667712e-07
7.28635964191e-05
-1.95909589286e-07
7.26954820364e-05
-2.84293870539e-07
7.24297063821e-05
-4.0887552564e-07
7.20179246481e-05
-5.78736268829e-07
7.1398964365e-05
-7.9851173309e-07
7.05073086441e-05
-1.06256573349e-06
-1.34582448285e-06
6.92983778943e-05
5.0787172357e-05
5.51548100797e-11
5.29516491207e-05
5.33747188176e-11
5.59606873309e-05
2.91667266714e-11
5.92633204026e-05
1.45216538577e-11
6.2448806614e-05
3.04917241586e-12
6.52735468018e-05
-5.82195090041e-12
6.76333260114e-05
-1.17640831313e-11
6.95186612904e-05
-1.47606808147e-11
7.09734447623e-05
-1.52507320496e-11
7.20647894132e-05
-1.38290509318e-11
7.28642596743e-05
-1.11261604666e-11
7.34378107849e-05
-7.79645395331e-12
7.38414655539e-05
-4.49450362316e-12
7.41203517144e-05
-1.86086045696e-12
7.4309471308e-05
-4.80609316773e-13
7.44351992307e-05
-7.5412087172e-13
7.45169497492e-05
-2.93224958916e-12
7.45687301161e-05
-6.76949903812e-12
7.4600465849e-05
-1.16313961446e-11
7.46190710375e-05
-1.65406312354e-11
7.46292809086e-05
-2.03681136934e-11
7.46342816623e-05
-2.20160601702e-11
7.46361762613e-05
-2.10301891417e-11
7.46363231109e-05
-1.86951725415e-11
7.46355636188e-05
-1.61784264421e-11
7.4634417569e-05
-1.30376464173e-11
7.46331822345e-05
-9.4441158124e-12
7.46320165314e-05
-5.4636055128e-12
7.46309943111e-05
-6.43758471253e-13
7.46301406277e-05
3.5220026408e-12
7.46294519739e-05
8.20805875676e-12
7.46289113751e-05
1.32435545319e-11
7.462849644e-05
1.85596419799e-11
7.46281840854e-05
2.42204697596e-11
7.46279530865e-05
3.03987620747e-11
7.46277851151e-05
3.72054377365e-11
7.46276649996e-05
4.4730352256e-11
7.46275809587e-05
5.28907862111e-11
7.46275251997e-05
6.1831726589e-11
7.46274860759e-05
7.09804242724e-11
7.46274598877e-05
8.05153219403e-11
7.46274427273e-05
9.1249623274e-11
7.46274316161e-05
1.03078358749e-10
7.46274242942e-05
1.15936222264e-10
7.46274192626e-05
1.2983493356e-10
7.46274154017e-05
1.44644728778e-10
7.4627412002e-05
1.6014197219e-10
7.46274085523e-05
1.75857875139e-10
7.46274046118e-05
1.91112715409e-10
7.46273998273e-05
2.04987626107e-10
7.46273940298e-05
2.16277397703e-10
7.4627386973e-05
2.23328961529e-10
7.46273785899e-05
2.23588163814e-10
7.46273677525e-05
2.14069619199e-10
7.462735342e-05
1.91541500551e-10
7.46273343029e-05
1.52144910457e-10
7.46273090701e-05
9.18191077293e-11
7.46272639451e-05
-1.79116801242e-11
7.46271765609e-05
-2.38652537877e-10
7.46270415401e-05
-5.61105616458e-10
7.46268194025e-05
-1.00367489875e-09
7.46264495401e-05
-1.61256075768e-09
7.46258356207e-05
-2.44342894068e-09
7.46248210567e-05
-3.56983431727e-09
7.46231508953e-05
-5.08871802854e-09
7.46204087606e-05
-7.1202862197e-09
7.46159278921e-05
-9.83292899548e-09
7.46086510446e-05
-1.34638732618e-08
7.45968427435e-05
-1.82213796869e-08
7.45777034033e-05
-2.43667847566e-08
7.45468156154e-05
-3.22969956237e-08
7.44974539747e-05
-4.27720993637e-08
7.44188871319e-05
-5.58700275796e-08
7.42947248631e-05
-7.17475295352e-08
7.41006003735e-05
-9.01695717608e-08
7.38017144212e-05
-1.09989854428e-07
7.33514312324e-05
-1.28453429568e-07
7.26933135564e-05
-1.40394275877e-07
7.17693765602e-05
-1.38629135803e-07
-1.14672036688e-07
7.05382237899e-05
5.07871713239e-05
-7.87116449457e-07
5.29516482621e-05