/*--------------------------------*- C++ -*----------------------------------*\
| =========                 |                                                 |
| \\      /  F ield         | OpenFOAM: The Open Source CFD Toolbox           |
|  \\    /   O peration     | Version:  2106                                  |
|   \\  /    A nd           | Website:  www.openfoam.com                      |
|    \\/     M anipulation  |                                                 |
\*---------------------------------------------------------------------------*/
FoamFile
{
    version     2.0;
    format      ascii;
    arch        "LSB;label=32;scalar=64";
    class       volVectorField;
    location    "0.39";
    object      U;
}
// * * * * * * * * * * * * * * * * * * * * * * * * * * * * * * * * * * * * * //

dimensions      [0 1 -1 0 0 0 0];

internalField   nonuniform List<vector> 
11200
(
(0.662462403633 0.150569444271 0)
(0.55894867081 0.103243389615 0)
(0.383850731753 0.0513512253362 0)
(0.283747588739 0.0248708562808 0)
(0.232075263702 0.0124170460874 0)
(0.201908581404 0.00662281753241 0)
(0.183197929421 0.00380291498758 0)
(0.171276487357 0.00231587052981 0)
(0.16351030762 0.00146450694734 0)
(0.158388773547 0.000944892769111 0)
(0.155006637398 0.00061517723011 0)
(0.152786684626 0.00040223413889 0)
(0.151346536248 0.000264232554997 0)
(0.150428300376 0.000175250498782 0)
(0.149856696602 0.000118361034422 0)
(0.149512495062 8.21603310165e-05 0)
(0.149314933595 5.88661877204e-05 0)
(0.149209570049 4.33158332127e-05 0)
(0.149159708019 3.29342601251e-05 0)
(0.149142464125 2.818559796e-05 0)
(0.149144614358 2.7683412907e-05 0)
(0.14915688299 2.98889542878e-05 0)
(0.149172496434 3.30494095027e-05 0)
(0.149188034812 3.59651161964e-05 0)
(0.14920223372 3.86008234796e-05 0)
(0.149214493249 4.10401400154e-05 0)
(0.149224645693 4.33176746041e-05 0)
(0.149232798089 4.54645462911e-05 0)
(0.149239187207 4.75200131541e-05 0)
(0.149244095109 4.95310870496e-05 0)
(0.149247806999 5.15596700417e-05 0)
(0.149250590362 5.36968672614e-05 0)
(0.14925264245 5.60252950871e-05 0)
(0.149254133524 5.84066220168e-05 0)
(0.149255196346 6.07675315203e-05 0)
(0.149255917771 6.30886420953e-05 0)
(0.149256394285 6.53799246356e-05 0)
(0.149256709102 6.76544712175e-05 0)
(0.149256915918 6.99239043435e-05 0)
(0.149257043918 7.21944893945e-05 0)
(0.149257113734 7.44672385425e-05 0)
(0.149257142331 7.67431440183e-05 0)
(0.149257141669 7.90217798618e-05 0)
(0.149257120219 8.13019759014e-05 0)
(0.149257084512 8.35816456024e-05 0)
(0.149257039115 8.58588533129e-05 0)
(0.149256988157 8.8130938265e-05 0)
(0.149256936262 9.03944649901e-05 0)
(0.149256888434 9.26464654736e-05 0)
(0.149256850184 9.48839902395e-05 0)
(0.149256828441 9.71039802879e-05 0)
(0.149256832858 9.93037090002e-05 0)
(0.149256876689 0.000101480140301 0)
(0.149256978874 0.000103629563014 0)
(0.149257165147 0.000105747473044 0)
(0.149257471335 0.000107828406181 0)
(0.149257948959 0.000109865189691 0)
(0.149258672694 0.000111848783925 0)
(0.149259753411 0.00011376586766 0)
(0.14926134976 0.000115590267696 0)
(0.149263706702 0.000117268034567 0)
(0.149267233913 0.000118715785924 0)
(0.149272399971 0.000119972865879 0)
(0.149279850942 0.000121234236838 0)
(0.149290620783 0.000122964701392 0)
(0.14930623125 0.000125339829999 0)
(0.149329070527 0.000128120443912 0)
(0.149362834123 0.000131080078871 0)
(0.1494131142 0.000134004639109 0)
(0.149488140511 0.000136781485614 0)
(0.149599848512 0.000140689898315 0)
(0.149771078266 0.000151556806423 0)
(0.150039591176 0.000172278484391 0)
(0.150468532913 0.000202522763223 0)
(0.151193695141 0.00023244238418 0)
(0.152492698881 0.000191642414358 0)
(0.155021645244 -0.000216753950593 0)
(0.16237472126 -0.00210991298543 0)
(0.187701893513 -0.0107876768346 0)
(0.204355045297 -0.0496553512374 0)
(0.96540825356 0.289214709889 0)
(0.961962853949 0.252656042494 0)
(0.82357437949 0.159021443802 0)
(0.698139350616 0.0959957332112 0)
(0.610225440254 0.0582481159566 0)
(0.548971463328 0.0362148547781 0)
(0.506588855971 0.0231612864808 0)
(0.477567231801 0.0151375164494 0)
(0.457745450618 0.01001775609 0)
(0.444228415949 0.00665814193477 0)
(0.435053250398 0.00441555684544 0)
(0.428873066583 0.0029068661924 0)
(0.424754146615 0.00189105850836 0)
(0.422046592495 0.00121004518875 0)
(0.42029775064 0.000757163041737 0)
(0.419193136239 0.000459255234635 0)
(0.418515525231 0.000265853828174 0)
(0.418116371899 0.000142398255445 0)
(0.417895761722 6.61075479215e-05 0)
(0.417786704049 2.3089756235e-05 0)
(0.417745282489 1.40449200924e-06 0)
(0.41774199839 -1.01662966483e-05 0)
(0.417756589849 -1.37177708069e-05 0)
(0.417778542404 -1.32710413048e-05 0)
(0.417802830904 -1.08386336659e-05 0)
(0.417826195907 -7.49543088248e-06 0)
(0.417846944013 -3.8789750334e-06 0)
(0.417864476684 -3.59358426329e-07 0)
(0.41787879783 2.86188524067e-06 0)
(0.417890222774 5.68096647738e-06 0)
(0.417899223582 8.03375545713e-06 0)
(0.417906293738 9.8357300998e-06 0)
(0.417911635424 1.10046652024e-05 0)
(0.417915482716 1.18574132062e-05 0)
(0.417918213726 1.26784356885e-05 0)
(0.417920103567 1.34351894802e-05 0)
(0.417921394099 1.41090264635e-05 0)
(0.417922276603 1.47241056763e-05 0)
(0.417922877403 1.53095603709e-05 0)
(0.417923268064 1.58792249829e-05 0)
(0.41792350093 1.64331621487e-05 0)
(0.417923619002 1.69763609053e-05 0)
(0.417923652633 1.75123534771e-05 0)
(0.417923623737 1.80446184639e-05 0)
(0.417923549126 1.85756438147e-05 0)
(0.417923441162 1.91079043295e-05 0)
(0.417923309741 1.9644188237e-05 0)
(0.417923166051 2.01859287588e-05 0)
(0.417923022752 2.0735245336e-05 0)
(0.417922893755 2.12944792167e-05 0)
(0.417922797306 2.18636297754e-05 0)
(0.417922758393 2.24426390374e-05 0)
(0.417922810532 2.30315764237e-05 0)
(0.417923000815 2.36303610508e-05 0)
(0.417923395053 2.42377700154e-05 0)
(0.417924085679 2.4853258365e-05 0)
(0.417925205478 2.54733950922e-05 0)
(0.417926947558 2.60878018299e-05 0)
(0.417929589811 2.66802000252e-05 0)
(0.417933524585 2.72160221674e-05 0)
(0.417939354802 2.76462679074e-05 0)
(0.417948177827 2.7925580914e-05 0)
(0.417961482136 2.82128353157e-05 0)
(0.41798140774 2.77512709739e-05 0)
(0.418010714437 2.51291590337e-05 0)
(0.418053010677 1.92898822021e-05 0)
(0.418114493827 9.42610096553e-06 0)
(0.418205283038 -5.99750014894e-06 0)
(0.418340978813 -2.9504201056e-05 0)
(0.418546473251 -6.477373308e-05 0)
(0.418863657555 -0.000115995378967 0)
(0.419362116423 -0.000188135804486 0)
(0.420155300984 -0.000307907524248 0)
(0.421446843637 -0.000532863997209 0)
(0.423628335028 -0.000999807669455 0)
(0.427418362318 -0.0020903901215 0)
(0.434238872252 -0.00485604519642 0)
(0.448264417556 -0.0122530112664 0)
(0.474641320524 -0.0342390622344 0)
(0.478159082036 -0.0987621130397 0)
(1.02222096429 0.238416190095 0)
(1.08213752385 0.295926655445 0)
(1.03447721438 0.239503068878 0)
(0.954615391792 0.174290166717 0)
(0.879992033398 0.12134547053 0)
(0.818614409189 0.0830993860572 0)
(0.771410820742 0.0567316688167 0)
(0.736634358298 0.0387409699528 0)
(0.711624398523 0.0264327880914 0)
(0.693916585749 0.0179731053547 0)
(0.681541375427 0.0121424480975 0)
(0.673000082387 0.00812490778156 0)
(0.667180616373 0.00536632005035 0)
(0.663271644767 0.00348444324205 0)
(0.660688470985 0.00221255955701 0)
(0.659014143064 0.00136337944496 0)
(0.657954457503 0.000805241022953 0)
(0.657304158891 0.000445913410617 0)
(0.656921733804 0.000221064978803 0)
(0.656710161076 8.55772686236e-05 0)
(0.656603289198 8.35364539886e-06 0)
(0.656561732252 -3.37239125665e-05 0)
(0.656557823398 -5.68582669269e-05 0)
(0.656571290377 -6.68772841944e-05 0)
(0.656592811022 -6.84846891097e-05 0)
(0.656616621911 -6.55634480946e-05 0)
(0.656639415684 -6.05528060966e-05 0)
(0.656659585562 -5.48633221002e-05 0)
(0.656676546447 -4.92796819159e-05 0)
(0.65669027645 -4.42086150533e-05 0)
(0.656701021981 -3.98450170705e-05 0)
(0.656709167144 -3.63074184087e-05 0)
(0.656715408304 -3.37013463487e-05 0)
(0.656720435037 -3.18628966834e-05 0)
(0.656724292384 -3.08156839998e-05 0)
(0.65672699618 -3.03087946414e-05 0)
(0.65672885621 -3.02524773159e-05 0)
(0.656730152319 -3.05632273861e-05 0)
(0.656731052333 -3.10907685185e-05 0)
(0.656731645895 -3.17522393032e-05 0)
(0.656732006804 -3.25185461751e-05 0)
(0.656732200218 -3.33545958118e-05 0)
(0.656732271214 -3.4235982939e-05 0)
(0.656732252987 -3.51436711223e-05 0)
(0.656732170367 -3.6061714525e-05 0)
(0.656732042858 -3.69799436302e-05 0)
(0.656731886094 -3.78905526149e-05 0)
(0.65673171619 -3.87874566496e-05 0)
(0.656731551536 -3.96663376987e-05 0)
(0.656731410722 -4.05216187256e-05 0)
(0.656731318051 -4.1349395083e-05 0)
(0.65673130955 -4.21461958858e-05 0)
(0.656731434922 -4.29105762148e-05 0)
(0.656731762874 -4.36458405094e-05 0)
(0.656732390614 -4.4366190573e-05 0)
(0.656733454378 -4.51020666392e-05 0)
(0.656735144436 -4.59100291794e-05 0)
(0.65673774028 -4.68855671636e-05 0)
(0.65674164859 -4.81522791773e-05 0)
(0.656747468007 -4.99315090714e-05 0)
(0.656756136881 -5.27387411358e-05 0)
(0.656769304728 -5.75629555288e-05 0)
(0.656788275376 -6.52184595116e-05 0)
(0.656814492106 -7.65645007837e-05 0)
(0.656851819886 -9.32990460313e-05 0)
(0.656906970366 -0.000117813897088 0)
(0.656989313871 -0.000153312155508 0)
(0.657112643819 -0.000205082190914 0)
(0.657298777906 -0.000281643803756 0)
(0.657583109184 -0.000396870466206 0)
(0.658023763278 -0.000575108714009 0)
(0.658709924829 -0.000863618627426 0)
(0.659788631166 -0.00135245864538 0)
(0.661517389368 -0.00221472065951 0)
(0.664338296424 -0.00381289326856 0)
(0.668946987075 -0.00694566419256 0)
(0.67636913619 -0.0133514460397 0)
(0.68861223472 -0.0268408256381 0)
(0.705234753548 -0.0563134799052 0)
(0.700483684942 -0.113070514917 0)
(1.02251475331 0.170807156319 0)
(1.1013897511 0.276496482543 0)
(1.11752424874 0.26666480288 0)
(1.09214658764 0.219901702469 0)
(1.05187813294 0.168168850942 0)
(1.01020819633 0.123567399695 0)
(0.973494658035 0.0888375241772 0)
(0.943864519024 0.0630063737285 0)
(0.921142758894 0.0442232057784 0)
(0.90428402886 0.0307423938658 0)
(0.892074822225 0.0211562945947 0)
(0.883404461636 0.0143954683227 0)
(0.877352619245 0.00966794731991 0)
(0.87319765372 0.00639383566508 0)
(0.870392873786 0.00415116272226 0)
(0.868533981039 0.00263448829866 0)
(0.867327579266 0.0016240142291 0)
(0.86656417028 0.00096267227716 0)
(0.866096406224 0.000539118257708 0)
(0.865822156703 0.000275149167542 0)
(0.865671305298 0.000117063934645 0)
(0.865595046957 2.87880380513e-05 0)
(0.865563980998 -1.93289356131e-05 0)
(0.865561164922 -4.12651588026e-05 0)
(0.865572500953 -4.7669222674e-05 0)
(0.865589499531 -4.55287372868e-05 0)
(0.865607801763 -3.91595437811e-05 0)
(0.865625133586 -3.11488331342e-05 0)
(0.865640411293 -2.29679522014e-05 0)
(0.865653267982 -1.53843591836e-05 0)
(0.86566373521 -8.72694031473e-06 0)
(0.865672016988 -3.04823211373e-06 0)
(0.865678365613 1.73049105553e-06 0)
(0.865682989592 5.46194399812e-06 0)
(0.865686305965 8.0307130771e-06 0)
(0.865688702417 9.78843006767e-06 0)
(0.865690333341 1.11411348575e-05 0)
(0.86569149403 1.22859250773e-05 0)
(0.865692361952 1.32535341498e-05 0)
(0.865692954965 1.41396969454e-05 0)
(0.865693320568 1.4934334818e-05 0)
(0.865693523171 1.56605601675e-05 0)
(0.86569360117 1.63340782453e-05 0)
(0.865693586 1.69694776877e-05 0)
(0.865693500181 1.75830198978e-05 0)
(0.865693359823 1.81847221858e-05 0)
(0.865693180337 1.87817076959e-05 0)
(0.865692978575 1.93805048536e-05 0)
(0.865692775895 1.99878808482e-05 0)
(0.865692596286 2.06131318092e-05 0)
(0.865692469998 2.12452119489e-05 0)
(0.865692438511 2.1869050291e-05 0)
(0.865692555593 2.24677194309e-05 0)
(0.865692891761 2.30144891442e-05 0)
(0.865693542116 2.34738408948e-05 0)
(0.865694638109 2.38123031077e-05 0)
(0.865696364855 2.39862901435e-05 0)
(0.86569901607 2.38764847651e-05 0)
(0.865702995837 2.3339045862e-05 0)
(0.865708719426 2.19587170192e-05 0)
(0.86571666825 1.91699017967e-05 0)
(0.865728457004 1.42599089007e-05 0)
(0.865746669352 5.40137521691e-06 0)
(0.865774282324 -8.98380478932e-06 0)
(0.865815161489 -3.08932016163e-05 0)
(0.865875231103 -6.42949667586e-05 0)
(0.865963833618 -0.000116062101953 0)
(0.866095482876 -0.000196952465919 0)
(0.866292727939 -0.000324222165424 0)
(0.86659038422 -0.000526339094878 0)
(0.867042047161 -0.000852237974543 0)
(0.867732764486 -0.00138883534635 0)
(0.868798853964 -0.00228486456238 0)
(0.870453512443 -0.00381485328106 0)
(0.873015524433 -0.00650294171954 0)
(0.876883615497 -0.0113583473746 0)
(0.882380023627 -0.0202497980023 0)
(0.889687569784 -0.0364473495862 0)
(0.896360784695 -0.0654818210953 0)
(0.886529293614 -0.110024346175 0)
(1.01287874948 0.118961028369 0)
(1.08820670065 0.231806942214 0)
(1.13741365694 0.253106769713 0)
(1.15409084693 0.228992758641 0)
(1.14994208263 0.188368363917 0)
(1.13538462305 0.146579848823 0)
(1.11758891169 0.110150970069 0)
(1.10059496183 0.0808162258474 0)
(1.08612452795 0.0582265793837 0)
(1.07459087882 0.0413189871751 0)
(1.06579141901 0.0289160215198 0)
(1.05928793941 0.0199601003889 0)
(1.05459971229 0.0135815596692 0)
(1.05129071181 0.00909744194972 0)
(1.04899979108 0.00598615206697 0)
(1.04744334421 0.00385696406234 0)
(1.04640646616 0.00242159522477 0)
(1.04573054544 0.00147014714157 0)
(1.0453009838 0.000851698701535 0)
(1.04503647962 0.000459013012609 0)
(1.04488010956 0.000216753552215 0)
(1.04479248558 7.3014531737e-05 0)
(1.04474861279 -5.50726442462e-06 0)
(1.04473170586 -4.40113948e-05 0)
(1.0447294476 -5.93885581252e-05 0)
(1.04473492413 -6.17222221451e-05 0)
(1.04474386488 -5.72487705039e-05 0)
(1.04475374173 -4.98071195629e-05 0)
(1.04476317506 -4.16480712006e-05 0)
(1.04477149504 -3.39927798493e-05 0)
(1.04477845124 -2.7427337258e-05 0)
(1.0447840313 -2.2155095257e-05 0)
(1.04478838156 -1.81313142026e-05 0)
(1.04479171307 -1.51420679912e-05 0)
(1.0447942805 -1.28110479461e-05 0)
(1.04479637638 -1.10148299581e-05 0)
(1.0447981138 -9.52763876114e-06 0)
(1.04479943743 -8.23927338927e-06 0)
(1.04480041753 -7.21991307164e-06 0)
(1.04480110551 -6.55063064334e-06 0)
(1.04480152136 -6.17205718128e-06 0)
(1.04480175299 -5.96436581575e-06 0)
(1.04480184417 -5.87454424007e-06 0)
(1.04480183369 -5.85836066225e-06 0)
(1.04480174781 -5.87294583902e-06 0)
(1.04480160351 -5.89869877863e-06 0)
(1.04480141838 -5.92519273149e-06 0)
(1.04480121308 -5.94771551145e-06 0)
(1.04480101396 -5.96915536828e-06 0)
(1.04480083152 -6.00228591897e-06 0)
(1.04480067971 -6.03482602265e-06 0)
(1.04480060133 -6.06217867543e-06 0)
(1.04480065294 -6.09029696907e-06 0)
(1.0448009111 -6.13461423879e-06 0)
(1.04480150049 -6.23551954779e-06 0)
(1.04480259799 -6.51547878067e-06 0)
(1.04480439095 -7.22146210031e-06 0)
(1.04480717759 -8.64057849108e-06 0)
(1.04481126716 -1.12613702739e-05 0)
(1.04481713043 -1.5097527724e-05 0)
(1.04482578294 -2.00341101874e-05 0)
(1.04483837481 -2.62771294685e-05 0)
(1.04485620309 -3.61013960378e-05 0)
(1.04488157261 -5.24900164553e-05 0)
(1.04491795198 -7.96587692534e-05 0)
(1.04497049547 -0.000123849981348 0)
(1.04504680872 -0.000194832744418 0)
(1.04515824089 -0.000308182936417 0)
(1.04532193835 -0.000489061364288 0)
(1.04556376263 -0.000778482610766 0)
(1.04592238707 -0.0012437499844 0)
(1.04645565382 -0.00199647966332 0)
(1.04724765514 -0.00322716671102 0)
(1.04841129668 -0.00526651224522 0)
(1.05007382523 -0.00869122178833 0)
(1.05229181396 -0.0144947974798 0)
(1.05482117629 -0.0242838657087 0)
(1.05687227436 -0.0403677100692 0)
(1.05573946734 -0.0655847401524 0)
(1.04212606236 -0.0994369469144 0)
(1.00447483296 0.0814040034164 0)
(1.06917236543 0.181288545169 0)
(1.13080567175 0.216950424699 0)
(1.17374998281 0.210789161363 0)
(1.19865262561 0.183690082501 0)
(1.21019984938 0.149751688579 0)
(1.21350252319 0.116779148762 0)
(1.21251720323 0.0882206817614 0)
(1.20973094344 0.0650481538375 0)
(1.20651115488 0.0470209107652 0)
(1.20351909032 0.0334068093223 0)
(1.20101140787 0.0233557322783 0)
(1.19903440581 0.0160720126109 0)
(1.19753873221 0.0108795116414 0)
(1.19644126482 0.00723418527487 0)
(1.19565553242 0.00471351516747 0)
(1.19510483206 0.0029976255059 0)
(1.19472641367 0.00184915720298 0)
(1.19447142657 0.00109495676125 0)
(1.19430310956 0.000610607780982 0)
(1.19419446295 0.000307983207129 0)
(1.19412617058 0.000125765397301 0)
(1.19408511282 2.22202692423e-05 0)
(1.19406184579 -3.24547321547e-05 0)
(1.19404953716 -5.72734154988e-05 0)
(1.19404403005 -6.45991506383e-05 0)
(1.19404252365 -6.23773511116e-05 0)
(1.19404319968 -5.55230544215e-05 0)
(1.19404494248 -4.69462279075e-05 0)
(1.19404709391 -3.82605056185e-05 0)
(1.19404928189 -3.02668925898e-05 0)
(1.1940513145 -2.32702968361e-05 0)
(1.19405312261 -1.72943410135e-05 0)
(1.19405470079 -1.22657120453e-05 0)
(1.19405606526 -8.0780123713e-06 0)
(1.19405723506 -4.67698659692e-06 0)
(1.19405818303 -2.06552116699e-06 0)
(1.19405885711 -1.76402064348e-07 0)
(1.19405921567 1.14258323524e-06 0)
(1.19405933172 1.99776907007e-06 0)
(1.19405938818 2.67369956429e-06 0)
(1.19405942463 3.27313038457e-06 0)
(1.19405940934 3.79403847732e-06 0)
(1.19405935906 4.25166652054e-06 0)
(1.19405927345 4.65447839241e-06 0)
(1.19405914194 5.01871277278e-06 0)
(1.19405896839 5.35679535584e-06 0)
(1.19405876035 5.67226461514e-06 0)
(1.19405852715 5.95777611668e-06 0)
(1.19405830754 6.19679230406e-06 0)
(1.19405815083 6.40807013749e-06 0)
(1.19405809034 6.58749433195e-06 0)
(1.19405817272 6.70875434374e-06 0)
(1.19405845417 6.73102943014e-06 0)
(1.19405896359 6.59230311618e-06 0)
(1.19405969258 6.20344226988e-06 0)
(1.19406073042 5.40925940265e-06 0)
(1.1940622258 3.81929323681e-06 0)
(1.19406487619 1.04187529574e-06 0)
(1.1940697008 -3.22845207669e-06 0)
(1.19407720422 -9.77340543887e-06 0)
(1.19408733067 -1.99677065329e-05 0)
(1.19410086298 -3.5831157643e-05 0)
(1.19411979429 -6.02843235555e-05 0)
(1.19414625152 -9.79111378529e-05 0)
(1.19418305996 -0.000156028361548 0)
(1.19423421466 -0.000246282531031 0)
(1.19430535364 -0.00038715258802 0)
(1.19440436619 -0.000608094059488 0)
(1.19454203477 -0.000956434426809 0)
(1.19473240743 -0.00150867531561 0)
(1.1949922596 -0.00238907956856 0)
(1.19533640886 -0.00380084082198 0)
(1.19576211272 -0.00607682960478 0)
(1.19620903617 -0.00975578508816 0)
(1.19645744956 -0.0156813468856 0)
(1.19592056245 -0.0250641352374 0)
(1.19344393399 -0.0393593814779 0)
(1.18669269513 -0.0598095032124 0)
(1.17014895194 -0.0851037754206 0)
(0.998962323885 0.0544316318664 0)
(1.05310956031 0.133401614478 0)
(1.11628266658 0.170777564709 0)
(1.17301269785 0.175143878309 0)
(1.21791243557 0.159583612389 0)
(1.25049854763 0.13495102577 0)
(1.27288487645 0.108411661912 0)
(1.28776718336 0.0838849761529 0)
(1.2974526398 0.0630565758075 0)
(1.30366070869 0.0462999238282 0)
(1.3075923007 0.0333205162116 0)
(1.31005365773 0.0235495243523 0)
(1.31157358087 0.0163599070649 0)
(1.31249488248 0.0111713135001 0)
(1.31303857392 0.00749150422702 0)
(1.31334666335 0.00492448265332 0)
(1.31351007431 0.00316295131946 0)
(1.31358670052 0.00197474744783 0)
(1.31361307248 0.00118819213892 0)
(1.31361191818 0.000678624278941 0)
(1.31359707543 0.000357003322901 0)
(1.3135767489 0.000160749012571 0)
(1.31355574913 4.64643446829e-05 0)
(1.31353644824 -1.58736920229e-05 0)
(1.31351978498 -4.60623998037e-05 0)
(1.31350609112 -5.70723260809e-05 0)
(1.31349518171 -5.7327114842e-05 0)
(1.31348671976 -5.20887453192e-05 0)
(1.31348031703 -4.45264913647e-05 0)
(1.31347558839 -3.64646901395e-05 0)
(1.31347218291 -2.88763202398e-05 0)
(1.3134697979 -2.22149241124e-05 0)
(1.3134681737 -1.66321613988e-05 0)
(1.31346708227 -1.21351831755e-05 0)
(1.31346635829 -8.65849796853e-06 0)
(1.31346590422 -6.1003361503e-06 0)
(1.31346561913 -4.32376207422e-06 0)
(1.31346541401 -3.1215342697e-06 0)
(1.31346528444 -2.26521475678e-06 0)
(1.31346531516 -1.55061621846e-06 0)
(1.31346547073 -9.74474703231e-07 0)
(1.31346557205 -5.63074065845e-07 0)
(1.31346557063 -2.10152751692e-07 0)
(1.31346549778 1.21521953329e-07 0)
(1.31346537086 4.27095623024e-07 0)
(1.31346520468 7.15287474391e-07 0)
(1.31346500346 9.97363427528e-07 0)
(1.31346477023 1.28261561719e-06 0)
(1.31346451491 1.58093690227e-06 0)
(1.31346427043 1.8959188029e-06 0)
(1.3134640612 2.18069812445e-06 0)
(1.31346389615 2.39358932337e-06 0)
(1.31346380577 2.48961679532e-06 0)
(1.3134638431 2.40548420655e-06 0)
(1.31346410073 2.05600984256e-06 0)
(1.31346469182 1.35942254807e-06 0)
(1.31346557651 2.49747849948e-07 0)
(1.31346687931 -1.43602182793e-06 0)
(1.31346901522 -3.95633815717e-06 0)
(1.31347217825 -8.03918584078e-06 0)
(1.31347659093 -1.49617880487e-05 0)
(1.31348248471 -2.62914157607e-05 0)
(1.31349014123 -4.36237644556e-05 0)
(1.31350004853 -7.01376012955e-05 0)
(1.31351252774 -0.0001108632979 0)
(1.31352766743 -0.000173548606381 0)
(1.31354509281 -0.00027027540246 0)
(1.31356350143 -0.000419999086297 0)
(1.31357971491 -0.000652531794848 0)
(1.31358684249 -0.0010150846607 0)
(1.31357084555 -0.00158264279209 0)
(1.31350431359 -0.00247422295178 0)
(1.31333306427 -0.00387701948833 0)
(1.31294959089 -0.00608329761489 0)
(1.31214399408 -0.00953738438724 0)
(1.3105110837 -0.0148805611965 0)
(1.30729779402 -0.0229407010215 0)
(1.30129499101 -0.0345576236943 0)
(1.29063573637 -0.05016801975 0)
(1.2718494268 -0.0685445753594 0)
(0.995736072427 0.0346338667681 0)
(1.04179513639 0.0905689282186 0)
(1.1022283735 0.121549571583 0)
(1.16491409803 0.12960584048 0)
(1.22202564082 0.122009274645 0)
(1.26951889443 0.106019944269 0)
(1.30680220933 0.0870975613588 0)
(1.33499532341 0.0686366857239 0)
(1.35574474372 0.0523698428198 0)
(1.37069613674 0.0389256206908 0)
(1.38128272478 0.0282980749543 0)
(1.38866264684 0.020171277523 0)
(1.39373030308 0.0141175095769 0)
(1.39715657655 0.00970533411047 0)
(1.39943431681 0.00655059244895 0)
(1.40091963664 0.00433445108405 0)
(1.4018661801 0.00280414073046 0)
(1.40245219704 0.00176573849576 0)
(1.40280129042 0.0010741903104 0)
(1.40299798251 0.000623230146423 0)
(1.40309919866 0.000336404269987 0)
(1.40314264678 0.000159618132855 0)
(1.40315290235 5.51592623031e-05 0)
(1.40314540797 -3.00331423373e-06 0)
(1.40312964335 -3.21272000938e-05 0)
(1.40311123684 -4.38945106376e-05 0)
(1.40309319466 -4.57646043616e-05 0)
(1.40307704186 -4.24226934582e-05 0)
(1.40306337991 -3.6732104803e-05 0)
(1.40305228255 -3.03692757491e-05 0)
(1.40304354826 -2.42490237092e-05 0)
(1.40303685159 -1.88183570952e-05 0)
(1.40303183155 -1.42459589483e-05 0)
(1.40302813837 -1.05338125369e-05 0)
(1.40302547404 -7.58145011164e-06 0)
(1.40302360614 -5.26429437535e-06 0)
(1.40302235823 -3.45956364823e-06 0)
(1.40302158017 -2.0236575066e-06 0)
(1.40302110544 -8.51766968139e-07 0)
(1.40302074058 7.81261545744e-08 0)
(1.40302041607 7.86866358259e-07 0)
(1.40302021155 1.27606800044e-06 0)
(1.40302011812 1.64811799875e-06 0)
(1.40302004371 1.96441904661e-06 0)
(1.40301995202 2.26487990162e-06 0)
(1.40301983652 2.56818290199e-06 0)
(1.40301969575 2.88316346928e-06 0)
(1.40301953231 3.21459248721e-06 0)
(1.40301934864 3.56271326805e-06 0)
(1.40301913761 3.91834207791e-06 0)
(1.40301891036 4.24057135018e-06 0)
(1.4030187012 4.49643881596e-06 0)
(1.40301853948 4.64729933213e-06 0)
(1.40301845024 4.63512377875e-06 0)
(1.4030184479 4.37222562976e-06 0)
(1.40301854064 3.71129775682e-06 0)
(1.40301874686 2.45290315338e-06 0)
(1.40301905164 4.79392493883e-07 0)
(1.40301969128 -2.64333957469e-06 0)
(1.4030208593 -7.67002482256e-06 0)
(1.40302239287 -1.5401441659e-05 0)
(1.40302396444 -2.71625772819e-05 0)
(1.40302510742 -4.48078019973e-05 0)
(1.40302508127 -7.13242275061e-05 0)
(1.40302239811 -0.000111301386861 0)
(1.40301432383 -0.000171770649713 0)
(1.40299605821 -0.000263605707895 0)
(1.40295942376 -0.000403679478394 0)
(1.40289049419 -0.000618050138474 0)
(1.40276557027 -0.000947322194701 0)
(1.40254463596 -0.00145481164553 0)
(1.40216136798 -0.00223892904007 0)
(1.40150426719 -0.00344869635256 0)
(1.4003850599 -0.00530778656129 0)
(1.39849055954 -0.00813892722134 0)
(1.3953077676 -0.0123767953646 0)
(1.39002384767 -0.0185321689511 0)
(1.38149103975 -0.0270425374044 0)
(1.3682139013 -0.037989376237 0)
(1.34780132927 -0.0504801536952 0)
(0.994011529649 0.0192358131882 0)
(1.03484762835 0.0523338471767 0)
(1.09199261261 0.0723631336448 0)
(1.15662418012 0.0791292379004 0)
(1.2203211393 0.0761045519935 0)
(1.27701942529 0.0673339768908 0)
(1.32424415925 0.056150908454 0)
(1.36181570481 0.0447990152988 0)
(1.39068527611 0.0345303810783 0)
(1.41226071802 0.0258814349963 0)
(1.42801818949 0.0189465254543 0)
(1.43929880836 0.0135849823936 0)
(1.44722804115 0.00955653342623 0)
(1.45270409608 0.00660011345614 0)
(1.45641891994 0.00447418731079 0)
(1.45889140408 0.00297350976539 0)
(1.46050226679 0.00193276444409 0)
(1.461525661 0.00122368923373 0)
(1.46215567351 0.000749545886871 0)
(1.46252749439 0.000439013135275 0)
(1.46273376708 0.000240516609607 0)
(1.46283690516 0.000117407480439 0)
(1.46287820261 4.40449869208e-05 0)
(1.46288443701 2.68615665335e-06 0)
(1.46287230799 -1.84486495263e-05 0)
(1.4628519515 -2.744261521e-05 0)
(1.46282939529 -2.94425137116e-05 0)
(1.46280785218 -2.76923895621e-05 0)
(1.46278885034 -2.41904424858e-05 0)
(1.46277293377 -2.01173856364e-05 0)
(1.4627600938 -1.61219950405e-05 0)
(1.4627500364 -1.25272737044e-05 0)
(1.4627423509 -9.4596303675e-06 0)
(1.46273660528 -6.93015369701e-06 0)
(1.46273240073 -4.88504575275e-06 0)
(1.46272939483 -3.2551895237e-06 0)
(1.46272729965 -1.97722196461e-06 0)
(1.46272585886 -1.01024248635e-06 0)
(1.46272485793 -3.11044219822e-07 0)
(1.46272423355 2.11588734672e-07 0)
(1.46272387464 6.90473700314e-07 0)
(1.46272362867 1.16432256832e-06 0)
(1.46272346358 1.5874502683e-06 0)
(1.46272334067 1.96483779192e-06 0)
(1.4627232303 2.31778706931e-06 0)
(1.46272311331 2.6601068333e-06 0)
(1.46272297664 2.99690615023e-06 0)
(1.46272281224 3.32664536691e-06 0)
(1.46272261566 3.63968693957e-06 0)
(1.46272238452 3.9226469135e-06 0)
(1.46272212225 4.16758597152e-06 0)
(1.46272183737 4.34308963785e-06 0)
(1.4627215379 4.39688863718e-06 0)
(1.462721234 4.26117539706e-06 0)
(1.46272094381 3.8426918887e-06 0)
(1.46272068546 3.03211960362e-06 0)
(1.46272042953 1.71205625985e-06 0)
(1.46272008579 -2.50137163264e-07 0)
(1.46271952316 -3.08550840795e-06 0)
(1.4627186079 -7.6717803138e-06 0)
(1.462717063 -1.47917938593e-05 0)
(1.46271421237 -2.55401002126e-05 0)
(1.46270894059 -4.14631046775e-05 0)
(1.46269944177 -6.49456186322e-05 0)
(1.46268265513 -9.95894981309e-05 0)
(1.46265344476 -0.000150788104157 0)
(1.46260330549 -0.000226724711981 0)
(1.4625184827 -0.000339871760052 0)
(1.46237652221 -0.000508841389705 0)
(1.46214059714 -0.000762049608529 0)
(1.46175075515 -0.00114323664401 0)
(1.46111241572 -0.00172006117671 0)
(1.46007451232 -0.00258826149409 0)
(1.45839612771 -0.00388735146114 0)
(1.4557034201 -0.00580968334773 0)
(1.45143112496 -0.00859832333475 0)
(1.44475907745 -0.0125133399414 0)
(1.43461854101 -0.0177350548509 0)
(1.4197505574 -0.0242115636239 0)
(1.39831002712 -0.0313966919216 0)
(0.99326966565 0.00617015710556 0)
(1.03158099234 0.0171020524783 0)
(1.08672180349 0.0239906544377 0)
(1.1517455243 0.0265606713773 0)
(1.21823533805 0.0258180644124 0)
(1.27925771296 0.0230488913961 0)
(1.3314013284 0.0193656362613 0)
(1.37377595434 0.015546862097 0)
(1.40691050016 0.0120449335133 0)
(1.43203310025 0.00906640206382 0)
(1.45060211484 0.00666059601929 0)
(1.46402982347 0.0047900916299 0)
(1.47355012568 0.00337842745191 0)
(1.48017559841 0.00233873640736 0)
(1.48470225169 0.00158891154453 0)
(1.48773616755 0.00105828597534 0)
(1.48972730421 0.000689459448036 0)
(1.49100273265 0.000437634876428 0)
(1.49179581055 0.000268882157972 0)
(1.49227017843 0.000158107570166 0)
(1.4925386672 8.71212412726e-05 0)
(1.49267774027 4.29717064352e-05 0)
(1.49273827019 1.65818717513e-05 0)
(1.49275344053 1.66163971029e-06 0)
(1.49274419987 -6.07146913096e-06 0)
(1.49272340785 -9.4168040503e-06 0)
(1.49269875988 -1.02230083871e-05 0)
(1.49267448371 -9.6593660047e-06 0)
(1.49265267695 -8.44508515549e-06 0)
(1.49263418122 -6.99819670979e-06 0)
(1.49261911906 -5.55851915441e-06 0)
(1.49260722839 -4.24615651174e-06 0)
(1.49259807994 -3.1086902289e-06 0)
(1.49259119826 -2.1523113241e-06 0)
(1.49258612928 -1.36094810005e-06 0)
(1.49258247278 -7.12878593725e-07 0)
(1.49257989315 -1.86481329106e-07 0)
(1.49257811933 2.39280494435e-07 0)
(1.49257694725 6.09666284638e-07 0)
(1.49257619825 9.79761260728e-07 0)
(1.49257571716 1.28452154287e-06 0)
(1.49257541354 1.56744490865e-06 0)
(1.49257522943 1.84676236759e-06 0)
(1.49257511209 2.1324950323e-06 0)
(1.49257502247 2.43170619847e-06 0)
(1.49257493407 2.7472680689e-06 0)
(1.4925748283 3.07880150606e-06 0)
(1.49257469264 3.42171950435e-06 0)
(1.49257451731 3.76749885983e-06 0)
(1.49257429368 4.10204884575e-06 0)
(1.49257401636 4.40524059675e-06 0)
(1.49257368096 4.64570244511e-06 0)
(1.49257328467 4.77490214178e-06 0)
(1.4925728134 4.73476058328e-06 0)
(1.49257224367 4.43910695187e-06 0)
(1.49257155501 3.76664124974e-06 0)
(1.49257072989 2.5709827379e-06 0)
(1.49256962598 7.56625381701e-07 0)
(1.49256783371 -1.90428240402e-06 0)
(1.49256505831 -6.04838185137e-06 0)
(1.49256090092 -1.22065095492e-05 0)
(1.49255433632 -2.11532920554e-05 0)
(1.49254375415 -3.3977302323e-05 0)
(1.49252661315 -5.22337065406e-05 0)
(1.49249880124 -7.81241142722e-05 0)
(1.49245362091 -0.000114679898006 0)
(1.49238019972 -0.000166277337712 0)
(1.49226147129 -0.000239414133432 0)
(1.49207007877 -0.000342593591239 0)
(1.49176142741 -0.000488358918671 0)
(1.49126323341 -0.000696888294481 0)
(1.49046676437 -0.00100191659127 0)
(1.48920266026 -0.00143589504792 0)
(1.48720510868 -0.0020463253239 0)
(1.48407572425 -0.00289455994415 0)
(1.47923477958 -0.00404807840316 0)
(1.47187557945 -0.00556114553593 0)
(1.46098482013 -0.0074352543703 0)
(1.44541559327 -0.00957636226092 0)
(1.42355886518 -0.0117359755133 0)
(0.993270463465 -0.00616839552705 0)
(1.0315809749 -0.0171003702016 0)
(1.086721737 -0.0239897567452 0)
(1.15174556176 -0.026560242336 0)
(1.21823541544 -0.0258179885771 0)
(1.27925781425 -0.0230491058784 0)
(1.33140145371 -0.0193660433077 0)