/*--------------------------------*- C++ -*----------------------------------*\
| =========                 |                                                 |
| \\      /  F ield         | OpenFOAM: The Open Source CFD Toolbox           |
|  \\    /   O peration     | Version:  2106                                  |
|   \\  /    A nd           | Website:  www.openfoam.com                      |
|    \\/     M anipulation  |                                                 |
\*---------------------------------------------------------------------------*/
FoamFile
{
    version     2.0;
    format      ascii;
    arch        "LSB;label=32;scalar=64";
    class       surfaceScalarField;
    location    "0.128";
    object      phi;
}
// * * * * * * * * * * * * * * * * * * * * * * * * * * * * * * * * * * * * * //

dimensions      [0 3 -1 0 0 0 0];

oriented        oriented;

internalField   nonuniform List<scalar> 
799
(
1.63997e-32
4.27914e-32
5.45429e-32
4.22606e-32
1.55761e-32
-5.26862e-32
-1.13683e-31
-1.61173e-31
-1.72829e-31
-1.36669e-31
-8.24657e-32
-2.17805e-32
1.51072e-32
2.32671e-32
1.00246e-34
-4.07067e-32
-9.31744e-32
-1.471e-31
-1.88636e-31
-2.17817e-31
-2.10844e-31
-1.75892e-31
-1.15851e-31
-4.61967e-32
-6.70765e-33
1.3017e-33
-4.14451e-32
-1.13144e-31
-1.80505e-31
-2.34158e-31
-2.38065e-31
-2.11812e-31
-1.66518e-31
-1.125e-31
-8.86333e-32
-7.85651e-32
-9.67639e-32
-1.35652e-31
-1.66509e-31
-2.0417e-31
-2.14092e-31
-2.02548e-31
-1.80003e-31
-1.34191e-31
-1.0983e-31
-1.00388e-31
-1.1713e-31
-1.66903e-31
-2.07647e-31
-2.44709e-31
-2.4739e-31
-2.14275e-31
-1.718e-31
-1.18177e-31
-9.44182e-32
-1.01205e-31
-1.34913e-31
-1.94585e-31
-2.40549e-31
-2.66233e-31
-2.53582e-31
-2.00924e-31
-1.39293e-31
-8.48133e-32
-7.24315e-32
-1.13584e-31
-1.87769e-31
-2.71654e-31
-3.17429e-31
-3.0024e-31
-2.29163e-31
-1.27691e-31
-5.15017e-32
-3.51949e-32
-8.24795e-32
-1.76435e-31
-2.63097e-31
-3.07854e-31
-2.96439e-31
-2.37257e-31
-1.71059e-31
-1.22077e-31
-1.06716e-31
-1.21707e-31
-1.45796e-31
-1.71691e-31
-1.91201e-31
-2.0926e-31
-2.29469e-31
-2.41624e-31
-2.39539e-31
-2.08288e-31
-1.55594e-31
-1.02047e-31
-6.92372e-32
-8.79714e-32
-1.46401e-31
-2.28007e-31
-2.97189e-31
-3.1037e-31
-2.749e-31
-1.88928e-31
-9.7894e-32
-4.44431e-32
-3.51911e-32
-9.29139e-32
-1.71944e-31
-2.45494e-31
-2.89181e-31
-2.71931e-31
-2.27842e-31
-1.64832e-31
-1.17935e-31
-1.09098e-31
-1.20281e-31
-1.50641e-31
-1.67225e-31
-1.64468e-31
-1.5147e-31
-1.37317e-31
-1.46975e-31
-1.77204e-31
-2.18471e-31
-2.49021e-31
-2.47333e-31
-2.12386e-31
-1.52738e-31
-9.29998e-32
-5.49087e-32
-4.92684e-32
-7.89344e-32
-1.31032e-31
-1.91712e-31
-2.46754e-31
-2.78339e-31
-2.80794e-31
-2.46796e-31
-1.82371e-31
-1.08342e-31
-4.32746e-32
-1.76958e-32
-3.99654e-32
-1.02875e-31
-1.8677e-31
-2.5131e-31
-2.77502e-31
-2.53708e-31
-1.9315e-31
-1.30106e-31
-8.64818e-32
-8.53826e-32
-1.19633e-31
-1.66309e-31
-2.03068e-31
-2.03256e-31
-1.70013e-31
-1.18855e-31
-7.67649e-32
-7.3572e-32
-1.13221e-31
-1.83925e-31
-2.50343e-31
-2.76846e-31
-2.45488e-31
-1.64825e-31
-7.49813e-32
-1.63877e-32
-2.37792e-32
-8.97363e-32
-1.79128e-31
-2.49309e-31
-2.55592e-31
-2.08559e-31
-1.3042e-31
-6.70314e-32
-5.98844e-32
-9.50849e-32
-1.63155e-31
-2.11916e-31
-2.13194e-31
-1.7603e-31
-1.04097e-31
-5.36296e-32
-3.91346e-32
-6.71021e-32
-1.33307e-31
-1.88049e-31
-2.23218e-31
-2.14189e-31
-1.65711e-31
-1.0889e-31
-5.14147e-32
-2.67795e-32
-3.36395e-32
-6.34346e-32
-1.10142e-31
-1.45823e-31
-1.6804e-31
-1.6972e-31
-1.49914e-31
-1.21167e-31
-8.33386e-32
-4.71672e-32
-2.21362e-32
-1.22635e-32
-2.80125e-32
-6.40971e-32
-1.06669e-31
-1.39267e-31
-1.38161e-31
-9.9697e-32
-3.69076e-32
2.52387e-32
5.1475e-32
2.84645e-32
-3.35864e-32
-1.02802e-31
-1.33669e-31
-1.00952e-31
-1.12863e-32
9.90831e-32
1.73672e-31
1.72064e-31
9.4257e-32
-2.56743e-32
-1.2078e-31
-1.35625e-31
-5.80247e-32
8.93097e-32
2.34938e-31
3.15573e-31
3.03301e-31
2.03211e-31
8.07063e-32
-4.60568e-33
-1.07506e-32
7.48043e-32
2.03876e-31
3.30634e-31
4.06557e-31
4.07424e-31
3.57863e-31
2.86949e-31
2.39821e-31
2.45204e-31
3.00355e-31
3.88272e-31
4.7468e-31
5.30586e-31
5.46608e-31
5.37017e-31
5.26011e-31
5.44141e-31
6.02166e-31
6.81301e-31
7.59586e-31
8.00973e-31
7.9802e-31
7.75355e-31
7.60767e-31
7.9787e-31
8.94442e-31
1.02469e-30
1.15606e-30
1.24178e-30
1.26956e-30
1.2619e-30
1.24644e-30
1.26531e-30
1.3329e-30
1.4316e-30
1.54888e-30
1.65408e-30
1.74038e-30
1.82186e-30
1.89584e-30
1.98058e-30
2.06916e-30
2.15194e-30
2.23916e-30
2.32305e-30
2.4201e-30
2.5321e-30
2.64773e-30
2.7661e-30
2.87397e-30
2.98234e-30
3.10766e-30
3.26179e-30
3.44651e-30
3.63821e-30
3.80578e-30
3.92489e-30
4.00321e-30
4.07264e-30
4.18492e-30
4.37507e-30
4.63669e-30
4.93634e-30
5.20788e-30
5.41311e-30
5.54959e-30
5.64962e-30
5.78074e-30
5.97745e-30
6.25161e-30
6.57262e-30
6.88488e-30
7.16236e-30
7.39129e-30
7.60265e-30
7.83572e-30
8.10853e-30
8.43003e-30
8.76836e-30
9.09836e-30
9.40791e-30
9.6966e-30
9.99834e-30
1.03308e-29
1.07054e-29
1.11159e-29
1.15275e-29
1.19264e-29
1.2298e-29
1.26542e-29
1.30299e-29
1.34399e-29
1.39065e-29
1.44137e-29
1.49296e-29
1.54343e-29
1.58956e-29
1.63314e-29
1.67665e-29
1.72314e-29
1.77684e-29
1.83654e-29
1.90094e-29
1.96567e-29
2.02546e-29
2.07883e-29
2.12606e-29
2.16747e-29
2.22491e-29
2.2933e-29
2.4444e-29
2.70186e-29
3.07859e-29
3.78145e-29
4.06497e-29
4.35891e-29
2.66696e-29
-1.59288e-29
-6.71489e-29
-1.72585e-28
-1.63066e-28
-1.02113e-28
1.8607e-28
8.30467e-28
1.196e-27
1.83866e-27
1.07722e-27
-7.40473e-28
-3.01559e-27
-7.52181e-27
-7.19203e-27
-5.90952e-27
1.77001e-27
1.68982e-26
2.269e-26
3.30709e-26
1.66706e-26
-1.35886e-26
-4.09848e-26
-9.0473e-26
-7.12997e-26
-4.21719e-26
3.15932e-26
1.54648e-25
1.62759e-25
1.92021e-25
5.43346e-26
-1.45577e-25
-2.41539e-25
-4.15687e-25
-2.365e-25
-3.16195e-26
2.19178e-25
5.89219e-25
4.5518e-25
3.83058e-25
-3.706e-26
-5.43978e-25
-5.80025e-25
-7.54228e-25
-2.54554e-25
2.23652e-25
5.06872e-25
9.15317e-25
5.06883e-25
2.23668e-25
-2.5454e-25
-7.54223e-25
-5.80031e-25
-5.4399e-25
-3.70741e-26
3.83049e-25
4.55179e-25
5.89224e-25
2.19185e-25
-3.16138e-26
-2.36498e-25
-4.15689e-25
-2.41544e-25
-1.45581e-25
5.43309e-26
1.92019e-25
1.62758e-25
1.54648e-25
3.15934e-26
-4.21723e-26
-7.13004e-26
-9.04737e-26
-4.09858e-26
-1.35895e-26
1.66696e-26
3.30699e-26
2.2689e-26
1.68972e-26
1.7692e-27
-5.91025e-27
-7.19267e-27
-7.52239e-27
-3.0162e-27
-7.41101e-28
1.07654e-27
1.83794e-27
1.19528e-27
8.29757e-28
1.85433e-28
-1.0267e-28
-1.63523e-28
-1.72975e-28
-6.75376e-29
-1.63619e-29
2.61311e-29
4.29684e-29
3.99968e-29
3.72032e-29
3.0303e-29
2.66727e-29
2.42188e-29
2.2756e-29
2.20321e-29
2.13738e-29
2.08499e-29
2.03023e-29
1.97536e-29
1.91951e-29
1.86464e-29
1.81166e-29
1.76199e-29
1.71486e-29
1.66792e-29
1.61909e-29
1.56693e-29
1.51234e-29
1.45889e-29
1.40927e-29
1.36616e-29
1.32886e-29
1.29445e-29
1.26033e-29
1.22293e-29
1.18244e-29
1.13965e-29
1.09659e-29
1.05643e-29
1.01974e-29
9.87911e-30
9.59798e-30
9.3342e-30
9.07068e-30
8.78039e-30
8.4586e-30
8.11526e-30
7.7729e-30
7.46576e-30
7.21632e-30
7.01829e-30
6.85305e-30
6.67738e-30
6.45625e-30
6.19065e-30
5.88727e-30
5.5973e-30
5.35693e-30
5.17661e-30
5.06099e-30
4.95813e-30
4.83719e-30
4.67077e-30
4.44581e-30
4.20177e-30
3.9642e-30
3.77465e-30
3.65476e-30
3.58632e-30
3.54517e-30
3.48194e-30
3.35974e-30
3.17319e-30
2.94237e-30
2.71748e-30
2.55352e-30
2.47514e-30
2.47416e-30
2.50352e-30
2.49802e-30
2.41836e-30
2.25513e-30
2.04678e-30
1.85093e-30
1.71547e-30
1.66121e-30
1.66535e-30
1.69036e-30
1.68809e-30
1.63867e-30
1.54283e-30
1.41881e-30
1.30274e-30
1.20602e-30
1.14806e-30
1.11859e-30
1.10273e-30
1.09204e-30
1.05736e-30
1.00913e-30
9.40708e-31
8.68728e-31
8.18906e-31
7.81523e-31
7.74225e-31
7.65079e-31
7.37936e-31
6.94181e-31
6.18017e-31
5.5288e-31
5.07793e-31
4.94621e-31
5.20222e-31
5.40573e-31
5.48472e-31
5.21733e-31
4.61486e-31
4.01298e-31
3.45757e-31
3.15884e-31
3.03602e-31
2.8878e-31
2.75783e-31
2.57846e-31
2.55738e-31
2.82788e-31
3.22289e-31
3.59658e-31
3.50428e-31
2.75995e-31
1.5746e-31
2.69412e-32
-4.16889e-32
-1.51186e-32
9.7961e-32
2.59522e-31
3.73087e-31
3.88278e-31
2.85221e-31
9.46843e-32
-8.20905e-32
-1.82216e-31
-1.51192e-31
-3.79017e-33
1.73962e-31
3.14591e-31
3.35169e-31
2.32384e-31
6.27368e-32
-1.10039e-31
-1.90259e-31
-1.60586e-31
-4.34143e-32
1.08339e-31
2.05599e-31
2.24958e-31
1.59087e-31
4.52202e-32
-5.19941e-32
-1.12698e-31
-1.11503e-31
-6.94997e-32
-1.62011e-32
3.91577e-32
6.95983e-32
8.52036e-32
8.25472e-32
6.01996e-32
3.08946e-32
-1.18392e-32
-4.90825e-32
-7.62804e-32
-8.66597e-32
-7.41152e-32
-4.89397e-32
-1.06227e-32
2.58165e-32
5.73329e-32
7.18323e-32
6.31088e-32
3.47645e-32
-1.6283e-32
-6.29237e-32
-1.00526e-31
-1.10788e-31
-8.7444e-32
-5.23071e-32
-1.42564e-33
3.35845e-32
5.07874e-32
5.26591e-32
2.66343e-32
-1.22628e-33
-3.9137e-32
-7.27994e-32
-8.7529e-32
-9.09641e-32
-6.53304e-32
-2.85047e-32
1.05099e-32
4.19311e-32
4.50224e-32
2.91126e-32
-6.2021e-33
-4.50352e-32
-7.1669e-32
-8.28451e-32
-7.09912e-32
-4.49765e-32
-1.25107e-32
1.53021e-32
2.86678e-32
2.2946e-32
2.78658e-33
-2.1921e-32
-4.08463e-32
-4.0923e-32
-3.22078e-32
-1.82656e-32
-1.36897e-32
-2.65026e-32
-3.73721e-32
-4.40421e-32
-2.3695e-32
1.59151e-32
4.94949e-32
6.38702e-32
2.95194e-32
-3.16218e-32
-9.36092e-32
-1.23464e-31
-9.10198e-32
-1.98792e-32
6.51927e-32
1.13902e-31
9.99902e-32
3.6051e-32
-5.31301e-32
-1.11447e-31
-1.16525e-31
-6.58533e-32
1.46807e-32
7.46411e-32
9.28148e-32
5.57174e-32
-1.0072e-32
-6.46315e-32
-8.49149e-32
-5.25343e-32
7.03311e-33
6.27943e-32
8.77453e-32
6.08135e-32
3.08299e-33
-6.0818e-32
-9.99565e-32
-8.86184e-32
-3.88996e-32
3.27829e-32
9.56525e-32
1.18371e-31
1.00922e-31
4.51676e-32
-2.62122e-32
-8.20822e-32
-1.12873e-31
-1.01516e-31
-5.52968e-32
7.59905e-33
7.71102e-32
1.22611e-31
1.35041e-31
1.0801e-31
4.12149e-32
-3.66814e-32
-1.06842e-31
-1.37624e-31
-1.11943e-31
-4.03392e-32
5.85498e-32
1.39649e-31
1.69918e-31
1.35923e-31
4.75431e-32
-5.214e-32
-1.20464e-31
-1.26198e-31
-6.5804e-32
2.85634e-32
1.13208e-31
1.49234e-31
1.18884e-31
4.3183e-32
-4.13308e-32
-9.38846e-32
-8.49207e-32
-2.75987e-32
5.49176e-32
1.20296e-31
1.32504e-31
9.83804e-32
2.44676e-32
-4.39414e-32
-7.23864e-32
-5.96722e-32
2.69028e-33
6.77436e-32
1.10681e-31
1.19278e-31
7.69116e-32
2.57939e-32
-2.24733e-32
-4.4823e-32
-2.52116e-32
7.92415e-33
5.30353e-32
8.38013e-32
8.93963e-32
8.12757e-32
5.68761e-32
3.48673e-32
2.17796e-32
1.45317e-32
1.65504e-32
1.89693e-32
1.71317e-32
1.82716e-32
1.83482e-32
2.81149e-32
5.09017e-32
7.47795e-32
1.03898e-31
1.1242e-31
9.8405e-32
6.32337e-32
5.11632e-33
-3.85863e-32
-6.44517e-32
-4.96459e-32
3.79845e-33
6.78988e-32
1.31151e-31
1.54655e-31
1.3941e-31
8.75433e-32
2.38424e-32
-2.5232e-32
-4.58108e-32
-2.4588e-32
6.0584e-33
5.47822e-32
7.51293e-32
7.57206e-32
6.86594e-32
2.37982e-32
1.43519e-32
-1.81767e-32
-2.44375e-32
-4.57126e-33
)
;

boundaryField
{
    left
    {
        type            calculated;
        value           uniform 0;
    }
    right
    {
        type            calculated;
        value           uniform 0;
    }
    empty
    {
        type            empty;
        value           nonuniform List<scalar> 0();
    }
}


// ************************************************************************* //
