/*--------------------------------*- C++ -*----------------------------------*\
| =========                 |                                                 |
| \\      /  F ield         | OpenFOAM: The Open Source CFD Toolbox           |
|  \\    /   O peration     | Version:  2106                                  |
|   \\  /    A nd           | Website:  www.openfoam.com                      |
|    \\/     M anipulation  |                                                 |
\*---------------------------------------------------------------------------*/
FoamFile
{
    version     2.0;
    format      ascii;
    arch        "LSB;label=32;scalar=64";
    class       volScalarField;
    location    "0.235";
    object      p;
}
// * * * * * * * * * * * * * * * * * * * * * * * * * * * * * * * * * * * * * //

dimensions      [0 2 -2 0 0 0 0];

internalField   nonuniform List<scalar> 
11200
(
150.182712495
147.254110599
146.140259386
145.612927612
145.245597262
144.950818204
144.689173697
144.440634493
144.196115303
143.951046419
143.702730656
143.449413291
143.189862292
142.923142061
142.648485731
142.365219892
142.072718737
141.7703763
141.457593776
141.133782939
140.798320146
140.450556371
140.089833279
139.715483034
139.326820074
138.923143097
138.503735905
138.067868074
137.614795701
137.143762023
136.653998003
136.144722836
135.615144051
135.064457766
134.491849351
133.896494572
133.277559467
132.634200549
131.965565211
131.27079216
130.549011736
129.799346119
129.020909523
128.212808273
127.374140746
126.503997142
125.601459023
124.665598578
123.695477521
122.690145519
121.648638073
120.569973663
119.453150033
118.297139372
117.100882157
115.863279321
114.583182312
113.259380598
111.890585867
110.475412171
109.012350908
107.499739234
105.935719769
104.31819184
102.644745478
100.912575456
99.1183714097
97.2581733025
95.3271769925
93.3194677842
91.2276565973
89.0423838562
86.7514514365
84.3386731558
81.7819638858
79.0496651031
76.0941796036
72.8429379825
69.1422447487
64.3790360906
148.389670615
147.031496376
146.24052453
145.740509664
145.349520785
145.025637538
144.741115614
144.476512476
144.221023591
143.968500505
143.715115865
143.458356048
143.196483985
142.928223191
142.652573226
142.368699271
142.075863932
141.773384387
141.460602194
141.136855564
140.801494234
140.453842755
140.093257433
139.719070141
139.330584889
138.927094653
138.5078804
138.072209882
137.619337907
137.148506726
136.658946303
136.149874279
135.620496314
135.070012175
134.497609202
133.902463151
133.283739797
132.640595605
131.97217799
131.277625732
130.556069317
129.806631142
129.028425739
128.220559865
127.382132463
126.512234473
125.60994841
124.674347673
123.704495502
122.699443482
121.658229487
120.579874959
119.463381325
118.307725351
117.111853201
115.874672864
114.595044557
113.27176862
111.903570232
110.489080342
109.026811839
107.515129524
105.952209674
104.335989383
102.664101112
100.933803783
99.1418820768
97.2844986267
95.3570140535
93.3537436847
91.2676187158
89.089682881
86.808388537
84.40859999
81.8699221461
79.1638468665
76.2495759735
73.0692740634
69.5201462461
65.4073024441
147.394480378
146.740279835
146.187923742
145.750305466
145.378681055
145.056578647
144.767478038
144.497243314
144.236779426
143.980297459
143.723912389
143.464942485
143.201475678
142.932084978
142.655649305
142.371240038
142.078047547
141.775333245
141.462398845
141.138567517
140.803177177
140.455588254
140.095056769
139.720929059
139.332513041
138.929099136
138.50996601
138.074380333
137.621596609
137.150857323
136.661393315
136.152424459
135.623159841
135.072792031
134.500503308
133.905471787
133.286864391
132.643838107
131.9755412
131.281113287
130.559685708
129.810381794
129.032317176
128.224599912
127.386330516
126.516601837
125.614498723
124.679097422
123.70946466
122.704656323
121.663715564
120.585670283
119.469529817
118.314280616
117.118880681
115.882252459
114.603273858
113.280767051
111.9134842
110.500089461
109.03913583
107.529036447
105.9680275
104.354139711
102.685135915
100.95842284
99.1709586258
97.3191447189
95.3986670403
93.4042870913
91.3295553125
89.1664089297
86.9047530966
84.531672003
82.0304444871
79.3792098489
76.5499932789
73.5111771442
70.2267805031
66.6737708611
146.844719209
146.481337745
146.08143934
145.712448286
145.374830748
145.06672724
144.781362628
144.510657214
144.248283595
143.989614756
143.731232632
143.470605655
143.20583397
142.935450293
142.658278543
142.3733362
142.07976695
141.776794604
141.463692041
141.139759358
140.80430563
140.456640706
140.096123393
139.722030553
139.333651473
138.930278451
138.511189905
138.075651275
137.62291594
137.152225372
136.662809237
136.153885612
135.624661856
135.074336285
134.502098688
133.907123589
133.288578858
132.645622223
131.977400979
131.283055191
130.561717008
129.812510773
129.034553558
128.226955287
127.388818807
126.519239866
125.617306885
124.682100492
123.712692755
122.708146054
121.667511365
120.589826156
119.474111469
118.319368091
117.124571648
115.888666423
114.610557414
113.289100055
111.92308745
110.511234015
109.052158067
107.544362801
105.98618649
104.375770497
102.711013112
100.989515583
99.2085025716
97.3647221084
95.454321235
93.4726901338
91.4142718806
89.2723371084
87.0386542328
84.703181343
82.2538292715
79.6764992663
76.9564448724
74.083957234
71.0626336299
67.9296509308
146.510671315
146.278875714
145.977462924
145.666485203
145.361644753
145.069620168
144.790643188
144.521515536
144.258553585
143.998467165
143.738495837
143.476402164
143.21039361
142.939021092
142.661087913
142.375577107
142.081596049
141.778335534
141.465040257
141.140987629
140.805472789
140.45779943
140.097271224
139.723177587
139.33482138
138.931486281
138.51244548
138.076962001
137.624287879
137.153664027
136.664320198
136.155475151
135.626336739
135.076101617
134.503955844
133.909075745
133.290626764
132.647766824
131.979646546
131.285406424
130.564181111
129.815097268
129.037274406
128.229825244
127.391855891
126.522465949
125.62074846
124.685789639
123.716668268
122.712455035
121.672211437
120.594987573
119.479819868
118.325727899
117.131710175
115.896738457
114.619749792
113.299640708
111.935253763
110.525369
109.068684275
107.563787027
106.009140771
104.403050849
102.743623613
101.028717214
99.2558841554
97.4223025771
95.5246930367
93.5592213906
91.5213909939
89.4059373377
87.2067520574
84.9169164925
82.529009787
80.0360224724
77.4337576318
74.7266564338
71.9360791147
69.1127253028
146.307278891
146.131376733
145.890181637
145.622855299
145.345667517
145.069028161
144.797337162
144.530833973
144.268067031
144.007056234
143.745766659
143.482331244
143.215124517
142.942755645
142.664031738
142.3779151
142.083483697
141.779898141
141.466375707
141.142170617
140.80655949
140.458830465
140.098274155
139.724180839
139.335839956
138.932530762
138.513523798
138.078080043
137.625450026
137.15487341
136.665578961
136.156784599
135.627697609
135.077514773
134.505422803
133.910599026
133.29221196
132.649421338
131.981378425
131.287227602
130.566104382
129.817136141
129.039444473
128.232144668
127.394346241
126.525153351
125.623664682
124.688973355
123.720166716
122.716325679
121.676523603
120.599825399
119.485285544
118.331945613
117.138831108
115.904947743
114.629277339
113.310767524
111.948327283
110.540808414
109.086994339
107.58559227
106.035218891
104.434358215
102.781343168
101.074323933
99.3112296881
97.4897268716
95.607175684
93.6605904434
91.6466151634
89.5615383543
87.4013939001
85.1622407747
82.8407942562
80.4357030067
77.9500351145
75.3959453303
72.800383197
70.2104525481
146.184162177
146.028554484
145.822252432
145.585689962
145.330214318
145.066934306
144.802320473
144.538811141
144.276677064
144.015090389
143.752717077
143.488080617
143.219751235
142.946420389
142.666915919
142.380190254
142.085298474
141.781374758
141.467611099
141.143239601
140.807518454
140.459721245
140.099129153
139.725024648
139.336688879
138.933396132
138.5144141
138.079001574
137.626407567
137.155870883
136.666619899
136.157872512
135.628836253
135.078708649
134.506677619
133.911921392
133.293608904
132.650900709
131.982948984
131.288897309
130.567881108
129.819031582
129.041474755
128.234330191
127.396712203
126.527730238
125.62648936
124.692090487
123.723630416
122.720201501
121.680891208
120.604781819
119.490949019
118.338460223
117.146372272
115.913728024
114.639552046
113.322848509
111.962593515
110.557725402
109.107143516
107.609688061
106.064129938
104.469156624
102.823356369
101.125199993
99.3730232391
97.5650123921
95.6991978884
93.7734654342
91.7856009909
89.7333987008
87.6148795643
85.4287114294
83.1749636289
80.8563946472
78.4805549338
76.0630450958
73.6307432779
71.2230136141
146.110082575
145.960072433
145.773316693
145.557211178
145.317504966
145.064683571
144.806046299
144.545307917
144.283940976
144.022019065
143.758801313
143.493164287
143.223867474
142.949689638
142.669487274
142.382210546
142.086897966
141.782662213
141.468673747
141.144145405
140.808319226
140.460455874
140.099826415
139.725705297
139.33736881
138.93408626
138.515122576
138.079734506
137.627169708
137.156666184
136.667451916
136.158744731
135.629752344
135.079672523
134.507693356
133.912993546
133.294742865
132.652102334
131.984225109
131.290257697
130.569341668
129.820610376
129.043190531
128.236205209
127.398773428
126.530010501
125.629028599
124.694937221
123.726843542
122.723852735
121.685068232
120.60959103
119.496519538
118.344948887
117.153969866
115.92266753
114.650119263
113.335391601
111.977535679
110.575584222
109.128545629
107.635400196
106.095093538
104.506528851
102.868561765
101.179996919
99.4395889027
97.6460518866
95.7980845897
93.8944222528
91.9339328636
89.9157865727
87.8397382707
85.7066009773
83.5189891125
81.2824374971
79.006984784
76.7092393537
74.4138846802
72.1529362353
146.067806273
145.918358612
145.741943043
145.538204939
145.308672451
145.062964319
144.808604604
144.549966482
144.289259922
144.027165888
143.763368466
143.497009787
143.22699832
142.952185422
142.671454359
142.383756951
142.088121166
141.783644477
141.469481547
141.144830816
140.808922128
140.461006264
140.100346578
139.726212495
139.337872862
138.934596976
138.515646668
138.080276944
137.627734491
137.157256752
136.668071443
136.159396389
135.630439511
135.080398968
134.508463413
133.913812366
133.295616697
132.653039204
131.985235437
131.291354001
130.570535226
129.821916104
129.044628387
128.237799537
127.400553629
126.532012181
125.631294945
124.697520665
123.729807781
122.727275058
121.689042167
120.614230226
119.501962177
118.351362989
117.161559623
115.931680789
114.660856549
113.348217084
111.992894783
110.594020479
109.150722732
107.662127908
106.127360209
104.545542878
102.915802835
101.237279753
99.5091431296
97.7306217117
95.9010526762
94.0199633058
92.0871991682
90.1031272142
88.0689435123
85.9871403031
83.8621651934
81.701315384
79.5158438938
77.3221668705
75.1423332359
73.0025296105
146.048529884
145.898652063
145.726689174
145.528753901
145.30419285
145.062074127
144.809939373
144.552430836
144.292104057
144.029943149
143.765852827
143.499117344
143.228727103
142.953574629
142.672559268
142.384634837
142.088824287
141.784217246
141.469960028
141.145243376
140.809290572
140.461347059
140.100671952
139.726531374
139.338192828
138.934922894
138.515982463
138.080625828
137.628099251
137.157640054
136.66847594
136.159824935
135.630895333
135.080885837
134.508985846
133.914375833
133.296227842
132.653705993
131.985966994
131.292160783
130.571432168
129.822920495
129.045760798
128.239084846
127.402022063
126.533700468
125.633247689
124.699792014
123.732463465
122.7303949
121.692723135
120.618590071
119.507143846
118.357540028
117.168942816
115.940526358
114.671476238
113.360990179
112.008280699
110.612579091
109.173133368
107.689216857
106.160133182
104.585224527
102.96388503
101.295580472
99.5798782981
97.816491776
96.0053463008
94.1466792661
92.2411835108
90.2902279622
88.2961549139
86.2627184229
84.1956272591
82.1032285121
79.9972487595
77.8934472313
75.8115194956
73.7733977009
146.048532505
145.898668159
145.726716213
145.528790163
145.304237565
145.062126458
144.809998396
144.552495723
144.292174112
144.030017797
143.765931608
143.499199901
143.228813171
142.953664024
142.67265188
142.384730618
142.088923241
141.78431943
141.470065549
141.145352393
140.809403308
140.461463817
140.100793127
139.72665748
139.338324559
138.935060984
138.516127831
138.080779613
137.628262843
137.157815001
136.668664252
136.160029069
135.631118263
135.08113117
134.509257951
133.914679994
133.296570435
132.654094763
131.986411511
131.292672988
130.572026085
129.823613148
129.046572949
128.240041747
127.403154374
126.535045424
125.634850499
124.701707562
123.73475838
122.733150063
121.696036717
120.622581222
119.511957184
118.363351065
117.175964515
115.94901701
114.681748904
113.373424792
112.023338568
110.630820091
109.195236573
107.716005742
106.192606523
104.624593114
103.011615498
101.3534459
99.6500168786
97.9014779335
96.1082756631
94.2712618313
92.3918758624
90.4723950531
88.5159438724
86.5271484769
84.5125253717
82.4809779124
80.4442949807
78.4174988381
76.4184976391
74.4663912596
146.067814188
145.918407275
145.742024762
145.538314473
145.308807455
145.063122082
144.808782317
144.550161681
144.28947053
144.02739019
143.76360509
143.49725767
143.227256677
142.952453711
142.67173225
142.384044301
142.088417999
141.783950968
141.469798017
141.145157745
140.809260186
140.461356342
140.10070983
139.726590477
139.338267562
138.935010584
138.516081899
138.080737114
137.628223633
137.157779742
136.668634237
136.160006228
135.631105195
135.081131204
134.509275245
133.914719686
133.29663883
132.654199566
131.986562095
131.292880744
130.572304852
129.823979777
129.047047942
128.240650018
127.403926187
126.536017526
125.636067513
124.703223662
123.736639317
122.735475623
121.698903706
120.626107094
119.516284396
118.368652385
117.182449468
115.956939674
114.69141743
113.385213018
112.037697308
110.648293782
109.216490464
107.741839975
106.223985898
104.662679917
103.05780725
101.409424659
99.7178246575
97.9835833416
96.2075883344
94.391216758
92.5364357131
90.6459535181
88.7237366877
86.7750409282
84.8068593698
82.8283473911
80.8511809576
78.8897688086
76.9608334183
75.081822133
146.110095966
145.960154781
145.77345474
145.557395822
145.317732095
145.064948494
144.806344244
144.545634748
144.284293224
144.022393884
143.759196434
143.49357796
143.22429841
142.950136951
142.669950429
142.382689319
142.087392411
141.783172631
141.469200682
141.144689666
140.808881949
140.461038547
140.100430867
139.726334178
139.338025005
138.934773545
138.515845457
138.080498428
137.627981292
137.15753347
136.668384666
136.159754795
135.630854105
135.080883442
134.509034649
133.914491073
133.296428162
132.654014171
131.986410927
131.292774719
130.572257272
129.824006823
129.047169305
128.240889647
127.40431319
126.536587266
125.636862938
124.704296913
123.738053676
122.737307868
121.701246964
120.629074299
119.520012482
118.373307291
117.188232246
115.964093812
114.700237645
113.39605594
112.050995387
110.664568032
109.236364476
107.766072819
106.253493144
104.698565683
103.101405563
101.462322771
99.7818674271
98.0609080848
96.300766251
94.5032535373
92.6708234307
90.806738448
88.9153066166
87.0021306101
85.0744301007
83.1413783364
81.2144180482
79.307498718
77.4367575058
75.6191154531
146.184181409
146.028672657
145.822449876
145.585953112
145.330536974
145.067309584
144.802741519
144.539272094
144.277173063
144.015617477
143.753272116
143.488661199
143.220355591
142.947047311
142.667564678
142.380860547
142.085990373
141.782088674
141.468347765
141.144000103
140.808304323
140.460534567
140.09997258
139.725901606
139.337603409
138.934353351
138.51542019
138.08006399
137.627535366
137.157075097
136.667913952
136.159272744
135.630362529
135.080384945
134.50853267
133.913989973
133.295933378
132.653532437
131.985950541
131.29234586
130.571872377
129.823681039
129.046921056
128.240741335
127.404292051
126.536726392
125.637202525
124.704885768
123.738951039
122.738585609
121.702992241
120.631392783
119.523032234
118.377183464
117.193152706
115.970285936
114.707976405
113.405673609
112.062893879
110.679232583
109.254379582
107.78813927
106.280450369
104.73141247
103.141316736
101.510706132
99.8404136442
98.1316214867
96.3859405415
94.6055131354
92.7931376172
90.9524140881
89.0879236099
87.2054403522
85.3121938457
83.4171682599
81.5314440089
79.6685924618
77.8446279022
76.0769653928
146.307304624
146.131534428
145.890443669
145.623202727
145.346091567
145.069519446
144.7978866
144.531433946
144.268711305
144.007739782
143.746485528
143.483082418
143.215905791
142.943565517
142.664869305
142.378779975
142.084375925
141.780818135
141.467324203
141.143148663
140.807568412
140.459872193
140.099353168
139.725303005
139.337009889
138.933754233
138.514808229
138.079434493
137.626885543
137.156403581
136.667220479
136.158557956
135.629627875
135.079632654
134.50776578
133.913212378
133.295149906
132.652749029
131.985174503
131.291586197
130.571140189
129.822989974
129.046287822
128.240186303
127.40384
126.536407422
125.637053173
124.704950369
123.73928338
122.739250924
121.704069599
120.632977974
119.525241254
118.380156707
117.197059992
115.975332629
114.714410745
113.413795236
112.073063855
110.691885858
109.27003907
107.807430627
106.304122026
104.760359728
103.176610176
101.553601576
99.8923770486
98.194358551
96.4614207412
94.6959764498
92.9010804521
91.0805501802
89.239108916
87.3825469359
85.5179251043
83.6538366342
81.8007957027
79.9718834005
78.1831327108
76.4532215192
146.510704234
146.279077789
145.977796021
145.666923906
145.362177026
145.070233698
144.791326516
144.522259287
144.259350219
143.999310681
143.739381564
143.477326581
143.211354187
142.940016164
142.662116571
142.376639096
142.082691645
141.779465385
141.466205186
141.14218868
140.806711506
140.459076963
140.098589619
139.724550234
139.336252239
138.932981115
138.514012498
138.078611477
137.62603237
137.155518697
136.66630334
136.157608837
135.628647794
135.078623365
134.506729807
133.912153123
133.294071768
132.651657509
131.984076311
131.290489369
130.570054305
129.821926658
129.045261288
128.239213956
127.402943146
126.535612108
125.636391157
124.704460283
123.739012142
122.739255486
121.704419115
120.633756284
119.526549944
118.382118803
117.199824396
115.979079242
114.719355793
113.420199144
112.081240229
110.702211589
109.282966364
107.823500987
106.323981681
104.784776097
103.206490669
101.590014962
99.9365721828
98.2477787856
96.5257135648
94.7729941595
92.9928620705
91.1892749239
89.3670065547
87.5317533641
85.6902661197
83.8505380279
82.0221892366
80.2173729007
78.4516044339
76.7447393454
146.844759333
146.481587868
146.081846012
145.712978651
145.37546881
145.067457282
144.782170707
144.51153225
144.249216838
143.990599338
143.73226328
143.471678456
143.206946205
142.936600325
142.65946576
142.374561017
142.081030825
141.778099981
141.465041869
141.141157475
140.80576114
140.458169293
140.097697894
139.723654277
139.335338268
138.932039642
138.513037134
138.077598116
137.624978459
137.154422733
136.665164624
136.156427324
135.627423941
135.077358043
134.505424319
133.910809394
133.292692616
132.650246785
131.982639027
131.289032194
130.568585902
129.820457282
129.043803334
128.237782448
127.401556251
126.534291801
125.63516406
124.703358698
123.738075325
122.738531019
121.703964438
120.633640772
119.526857472
118.382950708
117.201303006
115.981352289
114.722603124
113.42463766
112.087130594
110.709866677
109.292760913
107.835882426
106.339482379
104.804026846
103.230234945
101.619123308
99.9720567009
98.2908050479
96.5776060154
94.835231702
93.0670577245
91.2771304475
89.4702257564
87.651894471
85.8285000801
84.0072584194
82.1964698077
80.4065122714
78.6505979136
76.9473730964
147.394532519
146.740592161
146.188414007
145.750932817
145.379425813
145.057421812
144.768403449
144.498238425
144.237834429
143.981404672
143.72506586
143.466137679
143.202709221
142.93335447
142.656953199
142.372577685
142.079419556
141.776742349
141.463850159
141.140067548
140.80472645
140.457156594
140.096679047
139.722613621
139.334264893
138.93092588
138.511877859
138.076390046
137.623719811
137.153112706
136.663803146
136.155014943
135.625961782
135.075847783
134.503868139
133.90920962
133.291050685
132.648565417
131.980921834
131.287283278
130.566810037
129.818661376
129.04199621
128.235975052
127.399762101
126.53252751
125.633449951
124.701719513
123.736540981
122.737137814
121.702756678
120.632672434
119.526193965
118.382671191
117.201503126
115.982147172
114.724129923
113.427061894
112.090651375
110.714722801
109.299238111
107.844321711
106.350289626
104.817683215
103.247307923
101.640277433
99.9980632573
98.3225491466
96.6160884155
94.8815667664
93.1224575924
91.3428706346
89.5475785661
87.7420098113
85.9321809052
84.1244785594
82.3255610256
80.542982947
78.78385235
77.0568467136
148.389770174
147.0319542
146.241207346
145.741364637
145.350524796
145.026769794
144.74235911
144.477854147
144.22245324
143.970010103
143.71669907
143.46000779
143.19820005
142.929999805
142.654406647
142.370585398
142.077797792
141.775359314
141.462612735
141.138909397
140.803589928
140.456004766
140.095502008
139.721398307
139.333002007
138.929609501
138.510503711
138.074952808
137.622215875
137.151539977
136.662160141
136.153300512
135.624175048
135.073988154
134.501935394
133.90720446
133.288976742
132.646425147
131.97871784
131.285019085
130.56449029
129.816291268
129.039581955
128.233524264
127.397284108
126.530033723
125.630954305
124.699239023
123.734096458
122.734754572
121.700465199
120.630509491
119.524204009
118.38090793
117.200031484
115.981045905
114.723495231
113.427008291
112.091316161
110.716270569
109.301865677
107.848263559
106.355823796
104.825137639
103.257067086
101.652789283
100.013845707
98.3421940547
96.6402613855
94.9110217794
93.1580230338
91.3854332474
89.5980572089
87.8013122321
86.0010951257
84.2032719405
82.4133714669
80.6361543777
78.8664223311
77.0746280839
150.182878729
147.254780894
146.141252829
145.614182007
145.247082373
144.952509394
144.691052383
144.442687124
144.198331984
143.953420121
143.70525669
143.452088994
143.192686909
142.926116771
142.651613749
142.368506522
142.076171286
141.774003417
141.461400381
141.137754752
140.802461058
140.454879644
140.094341601
139.720181695
139.3317178
138.928250725
138.509066663
138.073440659
137.620630304
137.149881217
136.660428459
136.151496333
135.622298868
135.072040504
134.499916806
133.905115186
133.286815862
132.644192772
131.976414712
131.282646306
130.562049331
129.813784229
129.037011656
128.230894322
127.39459908
126.527299283
125.628177467
124.696428376
123.731262478
122.731910009
121.697625635
120.62769385
119.521435226
118.378213706
117.197445175
115.978607433
114.721252027
113.425017999
112.089648076
110.715007673
109.30110711
107.848127593
106.356451269
104.826695843
103.259754035
101.656838115
100.019529515
98.3498358633
96.6502535336
94.9237883867
93.1740455472
91.4052620054
89.6223269901
87.8307593893
86.0366060528
84.2463665531
82.4664649509
80.7016943849
78.9316186469
77.0317145638
56.9843734562
53.4323621848
51.0410047529
49.0838023085
47.4121391685
45.9558406335
44.6708995616
43.527566868
42.5041145005
41.5837347736
40.7529614437
40.0007361169
39.3178159975
38.6963752808
38.1297228335
37.6120923434
37.1384820732
36.7045285903
36.3064054569
35.9407407913
35.6045497614
35.2951795422
35.0102633567
34.7476821191
34.5055323249
34.2820995104
34.0758357071
33.8853396982
33.7093402306
33.5466817284
33.3963114877
33.2572682366
33.1286725053
33.0097180752
32.8996633677
32.7978236561
32.7035640157
32.6162910163
32.5354493063
32.4605724643
32.3914430001
32.3276488362
32.268679036
32.2141263688
32.1636251145
32.1168635601
32.0735700424
32.0335080059
31.99641982
31.9620996335
31.9302698578
31.900796747
31.8734916903
31.8481728168
31.8246783116
31.8028607407
31.7825842829
31.7637226618
31.7461588674
31.7297862235
31.7145052823
31.7002242716
31.6868580484
31.6743278202
31.662561062
31.6514905165
31.6410547281
31.6311972323
31.6218655257
31.6130114621
31.6045909938
31.5965637193
31.5888927205
31.5815440959
31.5744868133
31.5676927556
31.5611358278
31.554792248
31.5486406027
31.5426610943
31.5368355296
31.531147517
31.525582396
31.5201265572
31.5147674637
31.5094938394
31.5042959503
31.4991651768
31.4940933327
31.4890728866
31.4840877456
31.4791394182
31.4742213679
31.4693277223
31.464455111
31.4596118791
31.454786225
31.4499762814
31.4451757045
31.4404088678
31.4356708295
31.4309246797
31.426170206
31.4214056231
31.4166289131
31.4118378424
31.4070307238
31.4022059054
31.3973620301
31.392498232
31.387613918
31.3827089652
31.3777840553
31.3728404081
31.367879647
31.3629039522
31.3579165255
31.3529210155
31.347922394
31.3429272368
31.337943514
31.3329809821
31.3280514227
31.3231684869
31.3183488375
31.3136081067
31.308969297
31.3044110389
31.2999104099
31.2961220346
31.2928955676
31.2897280276
31.2870780073
31.2849667497
31.2835533419
31.2829813565
31.2833899635
31.2849253765
31.2878593609
31.2925863281
31.2989620838
31.3072456464
31.3173870672
31.3288016592
31.33953763
31.3446612602
31.332922775
31.2811513661
31.1465934049
30.8574402858
30.307453946
29.3630832886
27.8916749996
25.8016831134
23.0691334089
19.7520936148
15.9701210513
11.6910945006
6.63974184297
1.5824094453
60.1657770754
56.1129728895
53.4011001467
51.2490020269
49.4474732536
47.898099651
46.5426411041
45.3438169219
44.2753965728
43.3176861153
42.4552871149
41.675805475
40.9690474949
40.3264998615
39.7409622064
39.2062882888
38.7171863059
38.2690693694
37.8579369644
37.4802770249
37.1329939373
36.8133420761
36.5188785758
36.2474205034
35.9970077581
35.765880031
35.552446039
35.3552685092
35.1730432127
35.0045851497
34.8488153667
34.7047493853
34.5714871511
34.4482050082
34.3341497493
34.2286287945
34.1310084396
34.040711839
33.9572083759
33.8799895712
33.808487815
33.7423170059
33.68106336
33.6243911965
33.5719651468
33.5234662935
33.4785995138
33.4370790955
33.3986503002
33.3630905279
33.33013488
33.2996138331
33.2713229864
33.2450940741
33.2207654261
33.1981837152
33.177209849
33.1577139103
33.1395766637
33.1226850717
33.1069324091
33.0922219785
33.0784662516
33.0655824206
33.0534944163
33.0421331592
33.0314341737
33.0213381929
33.0117911764
33.0027426951
32.9941463432
32.985961029
32.9781470988
32.9706696372
32.9634968385
32.9565983481
32.9499476462
32.9435195621
32.9372918254
32.9312439857
32.9253563139
32.9196125939
32.9139970242
32.9084954618
32.903094567
32.8977828629
32.8925499976
32.8873866751
32.8822857695
32.8772451375
32.8722475039
32.8672899132
32.8623639124
32.8574616215
32.8525759612
32.8476881778
32.8428127193
32.8379460725
32.8330820467
32.8282172827
32.8233285983
32.8184348733
32.8135359376
32.8086279559
32.8037110911
32.7987834786
32.7938423021
32.7888862688
32.7839151971
32.7789261958
32.7739202853
32.7688958196
32.7638532256
32.7587944303
32.7537192519
32.7486301317
32.7435298539
32.7384225741
32.7333103818
32.7282041175
32.7231092835
32.7180360829
32.7129997113
32.7080141913
32.7031084303
32.698301965
32.6936374299
32.6891377371
32.684810609
32.6809273539
32.677035494
32.6735754246
32.6709860659
32.6689118331
32.6675760496
32.6671559733
32.6678771866
32.6698657511
32.6733568405
32.6786467845
32.6858477963
32.6951337812
32.7063651919
32.7187482124
32.7298285415
32.733692321
32.7171663856
32.6538173748
32.4959773221
32.1654870906
31.5498857555
30.5124721167
28.9235735651
26.7014324888
23.8339434826
20.3836361579
16.4681082751
12.0708596438
6.93043779218
1.71653593829
62.373306141
58.4398403673
55.5728301509
53.2892003371
51.3876948822
49.7618255227
48.3465287532
47.0997407392
45.9919823165
45.0013323071
44.1108369583
43.3069959302
42.5788169345
41.9172015612
41.314515836
40.7642878789
40.2609788734
39.7998115253
39.3766370049
38.987825784
38.630187731
38.300900398
37.9974564366
37.7176191707
37.459382307
37.2209452922
37.00068188
36.7971232691
36.6089373827
36.434914003
36.2739510428
36.1250430395
35.9872706825
35.8597916519
35.7418344857
35.6326880764
35.5316973673
35.4382594085
35.3518151893
35.2718576457
35.1979072695
35.1293306497
35.0658373106
35.0071303518
34.9528367485
34.9026130755
34.8561537024
34.8131716918
34.7734034278
34.7366053003
34.7025312415
34.6709857264
34.6417624877
34.6146795378
34.5895678151
34.5662697611
34.5446421512
34.5245466001
34.5058541705
34.4884526141
34.4722344544
34.4571003958
34.442959452
34.4297255549
34.4173201297
34.4056711555
34.3947113501
34.3843792795
34.3746187051
34.365377428
34.3566067535
34.348263932
34.3403080694
34.3327028508
34.3254147433
34.3184123521
34.3116682427
34.3051560692
34.2988524409
34.2927361662
34.2867867597
34.280987342
34.2753212449
34.2697739697
34.2643317568
34.2589822765
34.25371474
34.2485193808
34.2433866194
34.2382987043
34.2332584197
34.228255862
34.2232864464
34.2183410733
34.2134107349
34.2084752512
34.2035517949
34.1986415491
34.1937376104
34.1888366344
34.1839313778
34.1790196237
34.1741000288
34.1691674104
34.1642208194
34.15925838
34.1542776055
34.1492767216
34.1442557153
34.1392116903
34.1341455473
34.1290561823
34.1239436372
34.1188097001
34.1136547101
34.1084810648
34.103291099
34.0980897324
34.0928793433
34.0876698404
34.0824685476
34.0772854775
34.0721374459
34.0670373655
34.0620147379
34.0570936517
34.0523113125
34.0476963329
34.0432636816
34.0391594789
34.0353775801
34.032228573
34.0292656929
34.0270995352
34.0257860513
34.0254703695
34.026285069
34.0285430163
34.0324409191
34.0382062282
34.0460406283
34.0560671155
34.0680472033
34.0809396756
34.0917467607
34.0935059055
34.0711294887
33.994909318
33.8124952942
33.4398920198
32.7592867984
31.631801641
29.9311867843
27.5847158396
24.5903635691
21.0132992974
16.9678525592
12.4523542245
7.2201991652
1.84825981193
64.177561554
60.4528836544
57.5490794455
55.1942452374
53.2246559899
51.540954579
50.0779434668
48.7916912911
47.6508934191
46.6321648321
45.7174373463
44.8923768467
44.1453705624
43.4668573129