/*--------------------------------*- C++ -*----------------------------------*\
| =========                 |                                                 |
| \\      /  F ield         | OpenFOAM: The Open Source CFD Toolbox           |
|  \\    /   O peration     | Version:  2106                                  |
|   \\  /    A nd           | Website:  www.openfoam.com                      |
|    \\/     M anipulation  |                                                 |
\*---------------------------------------------------------------------------*/
FoamFile
{
    version     2.0;
    format      ascii;
    arch        "LSB;label=32;scalar=64";
    class       surfaceScalarField;
    location    "0.48";
    object      phi;
}
// * * * * * * * * * * * * * * * * * * * * * * * * * * * * * * * * * * * * * //

dimensions      [0 3 -1 0 0 0 0];

oriented        oriented;

internalField   nonuniform List<scalar> 
22100
(
3.38461202389e-05
1.61538797522e-05
2.24572091753e-05
1.13889105071e-05
1.62585517961e-05
6.19865691427e-06
1.27977743489e-05
3.46077700838e-06
1.08046400496e-05
1.99313389312e-06
9.60458666538e-06
1.20005302291e-06
8.85131863715e-06
7.5326772776e-07
8.36434966123e-06
4.8696874933e-07
8.04433173278e-06
3.20017786402e-07
7.83283699573e-06
2.11494683614e-07
7.69339397626e-06
1.39443054175e-07
7.60223729678e-06
9.11567955815e-08
7.54347476485e-06
5.87627174927e-08
7.50633812444e-06
3.71368800919e-08
7.48349889828e-06
2.28395024516e-08
7.46997835348e-06
1.35208423617e-08
7.46241399475e-06
7.56466407019e-09
7.45854621059e-06
3.86808723577e-09
7.45682745534e-06
1.7190504494e-09
7.45642107746e-06
4.06661812763e-10
7.45677116776e-06
-3.49813135768e-10
7.4574576504e-06
-6.8620732372e-10
7.45821633116e-06
-7.58406201252e-10
7.45894201373e-06
-7.25399621094e-10
7.4595867368e-06
-6.44429473802e-10
7.46013110689e-06
-5.44067415308e-10
7.46057366371e-06
-4.42249004646e-10
7.46092284655e-06
-3.4887481106e-10
7.46119155022e-06
-2.68401479184e-10
7.46139385189e-06
-2.02015575078e-10
7.46154308808e-06
-1.48977693739e-10
7.46165100816e-06
-1.07662318063e-10
7.46172729494e-06
-7.60864825891e-11
7.4617800468e-06
-5.26047988746e-11
7.46181327019e-06
-3.3078086245e-11
7.46183189602e-06
-1.85781496842e-11
7.46184072107e-06
-8.84390617469e-12
7.46184316995e-06
-2.52765304246e-12
7.46184118739e-06
1.84522359902e-12
7.46183592716e-06
5.06275048391e-12
7.46182834805e-06
7.33103703825e-12
7.4618190882e-06
8.97256097084e-12
7.4618085418e-06
1.0233094981e-11
7.46179691588e-06
1.13135188784e-11
7.46178425286e-06
1.23697321608e-11
7.46177043323e-06
1.35456880356e-11
7.46175526042e-06
1.49448319638e-11
7.46173844284e-06
1.66560978929e-11
7.46171959186e-06
1.87726371822e-11
7.46169819051e-06
2.1416993334e-11
7.46167365044e-06
2.46642956112e-11
7.46164529068e-06
2.86066564005e-11
7.46161232285e-06
3.33336124547e-11
7.46157388707e-06
3.89129788273e-11
7.46152910647e-06
4.53595111883e-11
7.46147713773e-06
5.26356711732e-11
7.46141735132e-06
6.05187782292e-11
7.46134961777e-06
6.84957693858e-11
7.46127464088e-06
7.57806334359e-11
7.46119488928e-06
8.05746618648e-11
7.46111684104e-06
7.88745522674e-11
7.46105243712e-06
6.52042390595e-11
7.46100921433e-06
4.40051044012e-11
7.46100673875e-06
3.22942126164e-12
7.46108104496e-06
-7.35603884052e-11
7.46129045404e-06
-2.08683821451e-10
7.46172952494e-06
-4.38354187685e-10
7.46254836985e-06
-8.18145750076e-10
7.46398227272e-06
-1.43322859306e-09
7.46638662978e-06
-2.40372836401e-09
7.47021042866e-06
-3.82323145178e-09
7.47666660176e-06
-6.45568837835e-09
7.48744408232e-06
-1.07771095059e-08
7.50562530733e-06
-1.81809864473e-08
7.53881578376e-06
-3.31903684664e-08
7.60803149037e-06
-6.9215724199e-08
7.77468267187e-06
-1.66651316291e-07
8.22954883933e-06
-4.54866428797e-07
9.69701893808e-06
-1.4674705033e-06
-5.45079373336e-06
1.51478123177e-05
5.02175946574e-05
1.59362845428e-05
4.42441108065e-05
1.73623934701e-05
3.77795001542e-05
1.2663266802e-05
3.26461421699e-05
8.59413429308e-06
2.89380895907e-05
5.70118585865e-06
2.63596187933e-05
3.77852331472e-06
2.45875140772e-05
2.52537206812e-06
2.33734718262e-05
1.70101076895e-06
2.25435227095e-05
1.14996682434e-06
2.19782140822e-05
7.7680338127e-07
2.15955117283e-05
5.22145615064e-07
2.13387354385e-05
3.47933409064e-07
2.11684942738e-05
2.2900429687e-07
2.10573370879e-05
1.48294544038e-07
2.09861496467e-05
9.402745705e-08
2.09416777752e-05
5.79932398764e-08
2.09147964883e-05
3.44464741023e-08
2.08992979264e-05
1.93671593211e-08
2.08910747123e-05
9.94276199266e-09
2.0887274974e-05
4.20689014186e-09
2.08862065625e-05
7.19091821121e-10
2.08864527864e-05
-9.31926280415e-10
2.08873247478e-05
-1.62984576837e-09
2.08884647737e-05
-1.86488701812e-09
2.08896386202e-05
-1.8177232041e-09
2.08907221075e-05
-1.6269945813e-09
2.08916601638e-05
-1.37974877977e-09
2.08924381035e-05
-1.1262741359e-09
2.0893063684e-05
-8.93466069221e-10
2.08935561355e-05
-6.93977786414e-10
2.08939402022e-05
-5.32642298363e-10
2.08942417919e-05
-4.08901953907e-10
2.089445276e-05
-2.86764916079e-10
2.0894599637e-05
-1.99349785331e-10
2.08946997893e-05
-1.33128781531e-10
2.08947648205e-05
-8.36248488397e-11
2.08948049461e-05
-4.91130889027e-11
2.08948283199e-05
-2.61624760292e-11
2.08948397637e-05
-9.96148126812e-12
2.08948422445e-05
2.13182649884e-12
2.08948382054e-05
1.08570681858e-11
2.08948293496e-05
1.72860251168e-11
2.08948168456e-05
2.21844098714e-11
2.08948014334e-05
2.619392751e-11
2.0894783535e-05
2.98118496388e-11
2.08947632916e-05
3.34130119472e-11
2.08947407137e-05
3.7260957534e-11
2.08947157051e-05
4.1547399929e-11
2.08946881002e-05
4.6437840712e-11
2.08946576493e-05
5.2127556227e-11
2.08946241511e-05
5.86266837069e-11
2.08945874818e-05
6.59520629601e-11
2.08945476617e-05
7.40292361351e-11
2.08945050114e-05
8.26112579471e-11
2.08944604042e-05
9.11543156318e-11
2.08944156294e-05
9.8710212407e-11
2.08943741127e-05
1.03442579621e-10
2.08943418496e-05
1.02197747207e-10
2.08943283371e-05
9.07550521513e-11
2.08943489668e-05
6.14016052928e-11
2.08944310688e-05
-1.77409846124e-12
2.08946229584e-05
-1.25275624701e-10
2.08949933319e-05
-3.24988732088e-10
2.08956612944e-05
-6.6340517719e-10
2.08967328271e-05
-1.14378176308e-09
2.08983872209e-05
-1.86178319642e-09
2.09009822457e-05
-3.03212913239e-09
2.09050658566e-05
-4.90056333528e-09
2.09115073173e-05
-7.87357565462e-09
2.09217303344e-05
-1.26257587088e-08
2.09382251937e-05
-2.03172740331e-08
2.09651352844e-05
-3.33651509724e-08
2.10094004522e-05
-5.50418595387e-08
2.10841903936e-05
-9.29707422452e-08
2.12154253442e-05
-1.6442536362e-07
2.14560007727e-05
-3.0979141054e-07
2.19137460664e-05
-6.24397022003e-07
2.28005183799e-05
-1.34163914597e-06
2.44440304261e-05
-3.11098296251e-06
-7.03660040536e-06
2.6029834911e-05
5.35171050864e-05
1.24191789901e-05
5.29349674833e-05
1.79445303169e-05
4.96538387792e-05
1.59443948574e-05
4.58401796312e-05
1.24077928477e-05
4.24400901918e-05
9.1012747775e-06
3.97291698647e-05
6.48944321348e-06
3.76873031096e-05
4.56723850485e-06
3.61976601042e-05
3.19065357721e-06
3.51326093992e-05
2.2150174595e-06
3.4382364385e-05
1.5270484495e-06
3.38606235441e-05
1.0438866215e-06
3.35023435381e-05
7.06213675382e-07
3.32595989513e-05
4.71749217657e-07
3.30975890252e-05
3.10304855461e-07
3.29913333768e-05
2.00283520577e-07
3.29230919584e-05
1.26235086218e-07
3.28804044871e-05
7.71343740626e-08
3.28546198419e-05
4.51522316602e-08
3.28397932457e-05
2.47697851481e-08
3.28318672521e-05
1.21333129392e-08
3.28279982652e-05
4.58851752713e-09
3.28270001798e-05
6.66181419017e-11
3.2827181476e-05
-1.81065823102e-09
3.28280304134e-05
-2.7133177072e-09
3.28291466858e-05
-2.93347330001e-09
3.28302943953e-05
-2.77417445074e-09
3.28313507776e-05
-2.43560533249e-09
3.28322615081e-05
-2.03649726995e-09
3.28330117197e-05
-1.64320213041e-09
3.28336074882e-05
-1.28929392242e-09
3.28340637189e-05
-9.88495186617e-10
3.28343986341e-05
-7.43523421987e-10
3.28346649085e-05
-5.52775071221e-10
3.28348810677e-05
-4.15396132446e-10
3.28350277323e-05
-2.7979368019e-10
3.28351264273e-05
-1.82370014738e-10
3.28351916652e-05
-1.14501792148e-10
3.28352329009e-05
-6.76420194314e-11
3.28352569891e-05
-3.43846372158e-11
3.28352679441e-05
-9.23175339262e-12
3.28352693466e-05
8.9914013487e-12
3.2835263728e-05
2.24210834404e-11
3.28352529468e-05
3.24814867697e-11
3.28352382286e-05
4.04327253798e-11
3.28352204007e-05
4.72397823861e-11
3.28351999298e-05
5.35549377354e-11
3.28351771435e-05
5.98151347974e-11
3.28351522816e-05
6.63006168163e-11
3.2835125505e-05
7.32594654678e-11
3.28350968376e-05
8.10148024226e-11
3.28350666013e-05
8.92576210286e-11
3.28350354156e-05
9.77090134666e-11
3.28350043373e-05
1.05848079491e-10
3.28349751844e-05
1.12654907421e-10
3.28349509833e-05
1.16368965224e-10
3.28349363086e-05
1.14489542138e-10
3.28349384346e-05
1.02535848037e-10
3.28349689443e-05
7.29416789017e-11
3.28350451769e-05
1.58056374059e-11
3.28351971171e-05
-8.92623851044e-11
3.28354762697e-05
-2.79636200448e-10
3.28359723749e-05
-6.20111024399e-10
3.28366957138e-05
-1.04708557121e-09
3.28377454553e-05
-1.71194065353e-09
3.28393818348e-05
-2.77898624979e-09
3.28419783414e-05
-4.45713085325e-09
3.28460394018e-05
-7.09207084361e-09
3.28523797328e-05
-1.12398326793e-08
3.28623124318e-05
-1.78052860909e-08
3.28780016775e-05
-2.83141232347e-08
3.2903107071e-05
-4.54219322588e-08
3.29429775551e-05
-7.32350655808e-08
3.30074398664e-05
-1.19503776867e-07
3.31134690183e-05
-1.98999691242e-07
3.32900651243e-05
-3.41021464117e-07
3.35854091645e-05
-6.05135651685e-07
3.4070541685e-05
-1.1095299611e-06
3.48115383593e-05
-2.08263623618e-06
3.56721351059e-05
-3.97157911904e-06
-7.10445965288e-06
3.573999725e-05
5.35105661898e-05
8.90861237974e-06
5.55742214046e-05
1.58808744178e-05
5.5242481225e-05
1.62761344514e-05
5.3597784263e-05
1.40524892755e-05
5.15418456488e-05
1.11572129233e-05
4.95802775977e-05
8.45101087904e-06
4.79243483776e-05
6.22316743723e-06
4.66181363989e-05
4.49686537507e-06
4.56304635914e-05
3.20269019703e-06
4.49051147391e-05
2.25239734127e-06
4.43840877436e-05
1.56491375359e-06
4.40166918748e-05
1.07360976206e-06
4.37619657349e-05
7.26475639005e-07
4.35882675387e-05
4.84003378768e-07
4.34718686328e-05
3.16682782762e-07
4.33953590509e-05
2.02745041718e-07
4.33461892913e-05
1.26304514055e-07
4.33154522255e-05
7.58896868714e-08
4.32969164344e-05
4.33059828745e-08
4.32862909633e-05
2.27592082103e-08
4.32806887301e-05
1.0191200199e-08
4.3277881687e-05
2.87414079092e-09
4.32770545673e-05
-9.83028100872e-10
4.32772731067e-05
-2.93132061494e-09
4.32779612789e-05
-3.62109338344e-09
4.32788249399e-05
-3.63728007467e-09
4.32796983057e-05
-3.3084260749e-09
4.32804962434e-05
-2.83391626674e-09
4.32811823848e-05
-2.32886692862e-09
4.32817485117e-05
-1.85498943089e-09
4.32822014567e-05
-1.44106221067e-09
4.32825538627e-05
-1.09564930484e-09
4.32828154876e-05
-8.14144338916e-10
4.32829905589e-05
-5.90300886484e-10
4.32831233621e-05
-4.12583317656e-10
4.32832081126e-05
-2.67184771837e-10
4.32832618557e-05
-1.68403251168e-10
4.32833011927e-05
-1.07237710684e-10
4.32833250638e-05
-5.8603781761e-11
4.32833365242e-05
-2.11140199125e-11
4.32833390065e-05
6.0384390684e-12
4.32833345059e-05
2.64374812874e-11
4.32833247989e-05
4.17257517912e-11
4.32833110043e-05
5.37491074599e-11
4.32832938628e-05
6.39864099918e-11
4.32832738273e-05
7.32771929223e-11
4.32832512699e-05
8.21553318062e-11
4.32832265198e-05
9.09531069469e-11
4.32831999915e-05
9.98323637502e-11
4.32831722523e-05
1.08960362082e-10
4.32831439701e-05
1.17915076811e-10
4.32831161337e-05
1.26087974136e-10
4.32830902256e-05
1.32460336101e-10
4.32830683426e-05
1.35391204576e-10
4.32830534016e-05
1.32296331037e-10
4.32830500076e-05
1.18941530375e-10
4.32830663196e-05
8.74000847744e-11
4.32831143979e-05
2.60852217815e-11
4.32832136173e-05
-8.21518221249e-11
4.32833792347e-05
-2.53635284452e-10
4.32836301583e-05
-5.29300576269e-10
4.32840806753e-05
-1.06938530302e-09
4.32848629376e-05
-1.82812650093e-09
4.32861277778e-05
-2.9755723372e-09
4.32880838276e-05
-4.7338698548e-09
4.32910817914e-05
-7.45395974375e-09
4.32956816854e-05
-1.16908710595e-08
4.33027624206e-05
-1.83195327525e-08
4.33137062926e-05
-2.87481935239e-08
4.33306710597e-05
-4.52780203222e-08
4.33569651769e-05
-7.17153134742e-08
4.33981569826e-05
-1.14426295702e-07
4.34630937322e-05
-1.84440118015e-07
4.35654912385e-05
-3.01396963512e-07
4.37252886229e-05
-5.00818788029e-07
4.39670553561e-05
-8.46902502666e-07
4.43074141059e-05
-1.44988911824e-06
4.4707603909e-05
-2.48282695564e-06
4.49266572264e-05
-4.19063345912e-06
-6.57497000628e-06
4.43971690287e-05
5.27351377014e-05
6.17347429423e-06
5.57309335927e-05
1.28850779071e-05
5.73114729691e-05
1.46955945472e-05
5.76109900733e-05
1.37529716917e-05
5.71335205923e-05
1.16346819841e-05
5.63194658662e-05
9.26506525893e-06
5.54489856082e-05
7.09364743511e-06
5.46629750733e-05
5.28287574346e-06
5.40136796423e-05
3.85198555527e-06
5.35061485453e-05
2.75992845906e-06
5.31242529661e-05
1.94680943769e-06
5.28449838592e-05
1.35287904342e-06
5.26454381364e-05
9.26021590977e-07
5.25057144845e-05
6.23727301253e-07
5.24097203621e-05
4.12677206408e-07
5.23450150448e-05
2.67450686438e-07
5.23022779514e-05
1.69041955275e-07
5.22746915431e-05
1.03476463256e-07
5.22573677713e-05
6.06301551498e-08
5.22468598603e-05
3.32675574005e-08
5.22407609122e-05
1.62906266099e-08
5.22374527635e-05
6.18280910838e-09
5.22359547401e-05
5.1555199905e-10
5.22354473801e-05
-2.42337598633e-09
5.22355128403e-05
-3.68595562337e-09
5.22358587312e-05
-3.98257553196e-09
5.22363133265e-05
-3.76244458485e-09
5.22367799763e-05
-3.30002558528e-09
5.22372075664e-05
-2.75597105072e-09
5.22375733627e-05
-2.22036919585e-09
5.22378706634e-05
-1.73801376584e-09
5.22381022379e-05
-1.32697690414e-09
5.22382783733e-05
-9.901425335e-10
5.22384110642e-05
-7.22895562411e-10
5.22385111308e-05
-5.12681432672e-10
5.22385956735e-05
-3.5185697981e-10
5.22386606205e-05
-2.33579762969e-10
5.22387025213e-05
-1.4945825687e-10
5.22387345838e-05
-9.10644572111e-11
5.2238749385e-05
-3.63695796752e-11
5.22387540414e-05
8.92488843533e-13
5.22387511259e-05
2.88453203267e-11
5.22387426477e-05
4.97567581946e-11
5.22387299243e-05
6.6016368703e-11
5.22387138866e-05
7.96305538399e-11
5.22386951329e-05
9.17298633454e-11
5.22386741619e-05
1.02929225426e-10
5.22386516379e-05
1.13402681269e-10
5.22386287317e-05
1.2280387676e-10
5.22386034223e-05
1.34495539447e-10
5.2238577473e-05
1.44244927313e-10
5.22385520116e-05
1.52075678816e-10
5.22385286661e-05
1.5647185299e-10
5.22385101803e-05
1.54677170575e-10
5.22385026654e-05
1.40758395595e-10
5.22385134575e-05
1.09145880773e-10
5.22385474548e-05
5.45393872678e-11
5.22386283234e-05
-5.35733609674e-11
5.22387519658e-05
-2.04503537146e-10
5.22389529048e-05
-4.53272266615e-10
5.22392949193e-05
-8.70017455709e-10
5.22398199269e-05
-1.5931041788e-09
5.22406012389e-05
-2.60818497923e-09
5.22417720659e-05
-4.14517504277e-09
5.22435360389e-05
-6.49665073474e-09
5.22461946764e-05
-1.01114411213e-08
5.22502002504e-05
-1.56953387044e-08
5.22562443481e-05
-2.43625920423e-08
5.2265386246e-05
-3.78891299586e-08
5.22792436736e-05
-5.91345732207e-08
5.23002745139e-05
-9.27453953375e-08
5.23321941575e-05
-1.46345329617e-07
5.23803450543e-05
-2.32590570802e-07
5.24516507956e-05
-3.72702434611e-07
5.25529703137e-05
-6.02138201945e-07
5.26848417147e-05
-9.78773917157e-07
5.28250319261e-05
-1.59007946129e-06
5.2892054252e-05
-2.54984982352e-06
5.2673471817e-05
-3.97205228785e-06
-5.76614652685e-06
5.18646488117e-05
5.1983486144e-05
4.18998780405e-06
5.50586631094e-05
9.80990038714e-06
5.76386118895e-05
1.2115645297e-05
5.93259014326e-05
1.20656817225e-05
6.02280131263e-05
1.07325699157e-05
6.05929240413e-05
8.90015403297e-06
6.06482807728e-05
7.0382904664e-06
6.05531862119e-05
5.37797014779e-06
6.04029516217e-05
4.00222006713e-06
6.0247911188e-05
2.91496889091e-06
6.01107858164e-05
2.08393487818e-06
5.99990265295e-05
1.46463845896e-06
5.99125116583e-05
1.01253663911e-06
5.98479201251e-05
6.8831905063e-07
5.98010169599e-05
4.5958062165e-07
5.97677327483e-05
3.00735183032e-07
5.97445918667e-05
1.92183159084e-07
5.97288138274e-05
1.19254862313e-07
5.97182662207e-05
7.11781685283e-08
5.97113606081e-05
4.01736320074e-08
5.97069418711e-05
2.07098817326e-08
5.97042086139e-05
8.91663480813e-09
5.97026002265e-05
2.12454914286e-09
5.9701696341e-05
-1.5188526554e-09
5.97012386644e-05
-3.22763136653e-09
5.97010497169e-05
-3.79299051764e-09
5.97010139515e-05
-3.72606985397e-09
5.9701058695e-05
-3.34420614022e-09
5.9701140216e-05
-2.83699087944e-09
5.97012328341e-05
-2.31256365303e-09
5.97013226761e-05
-1.82750827768e-09
5.97014031152e-05
-1.40716317476e-09
5.97014727201e-05
-1.05961670474e-09
5.97015321409e-05
-7.8225501738e-10
5.97015821459e-05
-5.62729610218e-10
5.97016215785e-05
-3.91444524603e-10
5.9701648856e-05
-2.61119657037e-10
5.97016634154e-05
-1.64373169385e-10
5.97016610739e-05
-8.91469944189e-11
5.97016525937e-05
-2.83613036855e-11
5.97016454868e-05
7.4929648768e-12
5.97016356715e-05
3.81081718217e-11
5.9701624978e-05
5.99700169323e-11
5.97016131077e-05
7.74402725488e-11
5.97015990889e-05
9.32132872449e-11
5.97015828455e-05
1.07647177618e-10
5.97015644857e-05
1.21076669326e-10
5.97015440893e-05
1.33708301569e-10
5.97015214581e-05
1.45482336827e-10
5.97014999513e-05
1.56203639065e-10
5.97014794968e-05
1.65063777803e-10
5.97014613535e-05
1.70743094378e-10
5.97014471664e-05
1.71336991593e-10
5.97014382824e-05
1.64373285202e-10
5.97014330096e-05
1.47018808956e-10
5.9701425952e-05
1.1726097566e-10
5.97014340692e-05
4.75458317412e-11
5.97014479375e-05
-6.62648552741e-11
5.97015397121e-05
-2.94989226839e-10
5.97017343481e-05
-6.46610175848e-10
5.97020391273e-05
-1.17349313128e-09
5.97024322552e-05
-1.98491566886e-09
5.9703018348e-05
-3.19298232684e-09
5.97038797292e-05
-5.00530357825e-09
5.97051306809e-05
-7.74638726371e-09
5.97069365759e-05
-1.19161549564e-08
5.9709535814e-05
-1.82934431922e-08
5.97132728063e-05
-2.80985215726e-08
5.97186377346e-05
-4.32530806481e-08
5.97263117517e-05
-6.68077026212e-08
5.97371965285e-05
-1.03629389459e-07
5.97523547751e-05
-1.61502925493e-07
5.97726242291e-05
-2.52859530389e-07
5.97974129617e-05
-3.97490848839e-07
5.98215640455e-05
-6.26289158723e-07
5.9828203536e-05
-9.85413428911e-07
5.97752969662e-05
-1.53717296316e-06
5.95749417617e-05
-2.34949485394e-06
5.90693591336e-05
-3.46647070261e-06
-4.79521658206e-06
5.80984290721e-05
5.14373050243e-05
2.75268247221e-06
5.42658196964e-05
6.98138521888e-06
5.72496418999e-05
9.13182267518e-06
5.9790025835e-05
9.52529740918e-06
6.17201259625e-05
8.80246945408e-06
6.30883006143e-05
7.53197910052e-06
6.40167139581e-05
6.10987690225e-06
6.46292336289e-05
4.76545032456e-06
6.50258005491e-05
3.60565306002e-06
6.52790751747e-05
2.66169423997e-06
6.54389703581e-05
1.9240397276e-06
6.55386874026e-05
1.36492149886e-06
6.55999262292e-05
9.51297941914e-07
6.56367414008e-05
6.51504048595e-07
6.56581929162e-05
4.38129315374e-07
6.56701016088e-05
2.88826743959e-07
6.56761913699e-05
1.86093704808e-07
6.56788282517e-05
1.1661834443e-07
6.56794993189e-05
7.05075282057e-08
6.56791237936e-05
4.05496533133e-08
6.567825712e-05
2.15771200502e-08
6.56772269526e-05
9.94742639819e-09
6.56762184607e-05
3.13370825181e-09
6.56753099512e-05
-6.09650761302e-10
6.56745419832e-05
-2.45896653947e-09
6.56739143049e-05
-3.1646374776e-09
6.5673416027e-05
-3.22715689378e-09
6.5673029671e-05
-2.95727423653e-09
6.56727362437e-05
-2.54306268241e-09
6.56725175746e-05
-2.09348186739e-09
6.56723575534e-05
-1.66716294179e-09
6.56722424937e-05
-1.29187838825e-09
6.56721602311e-05
-9.77253267969e-10
6.56721001699e-05
-7.22197573039e-10
6.56720565138e-05
-5.19193530363e-10
6.56720250252e-05
-3.6018670889e-10
6.56719995563e-05
-2.35988037941e-10
6.56719775252e-05
-1.4276827251e-10
6.56719623705e-05
-7.44831808626e-11
6.56719602386e-05
-2.67646061941e-11
6.56719581827e-05
9.00613521282e-12
6.56719502392e-05
4.54835913875e-11
6.5671939589e-05
7.00933174616e-11
6.56719267381e-05
8.98720406868e-11
6.56719124425e-05
1.07120186735e-10
6.56718968016e-05
1.22987437878e-10
6.56718796809e-05
1.3801087117e-10
6.56718610281e-05
1.52306229558e-10
6.56718412899e-05
1.65297946519e-10
6.56718225939e-05
1.7511520977e-10
6.56718039352e-05
1.84082443213e-10
6.56717858088e-05
1.89370986777e-10
6.56717693696e-05
1.88418162084e-10
6.56717565947e-05
1.77895639285e-10
6.56717514523e-05
1.53090048631e-10
6.56717615052e-05
1.08284522034e-10
6.56717679351e-05
4.22945348915e-11
6.56718075744e-05
-1.04655394572e-10
6.56718776904e-05
-3.63792447105e-10
6.56719805409e-05
-7.48111828643e-10
6.56721360061e-05
-1.32760656312e-09
6.56723513466e-05
-2.19889818773e-09
6.56726433877e-05
-3.48367479729e-09
6.56730288615e-05
-5.3894751259e-09
6.56735190039e-05
-8.23528347575e-09
6.56741118869e-05
-1.25078349476e-08
6.56747778257e-05
-1.89582235595e-08
6.56754319286e-05
-2.8751531247e-08
6.56758742303e-05
-4.3694372428e-08
6.56756783249e-05
-6.66108802109e-08
6.56739762053e-05
-1.01926456604e-07
6.56690362759e-05
-1.56562305191e-07
6.56573279297e-05
-2.41150636515e-07
6.56317277415e-05
-3.71890276399e-07
6.55780932328e-05
-5.72654463844e-07
6.54692067363e-05
-8.76526941998e-07
6.52559289316e-05
-1.32389526174e-06
6.48582640692e-05
-1.95183011096e-06
6.41638295114e-05
-2.772036896e-06
-3.71395194389e-06
6.30825644942e-05
5.10850419998e-05
1.66764020048e-06
5.36118436732e-05
4.45458309386e-06
5.66873151399e-05
6.05635082868e-06
5.9689444743e-05
6.52316746294e-06
6.22997250005e-05
6.19218889184e-06
6.44136862855e-05
5.4180175571e-06
6.6047182232e-05
4.47638074718e-06
6.72686136751e-05
3.54401872862e-06
6.81598927073e-05
2.71437393049e-06
6.87977594043e-05
2.02382749702e-06
6.92467439825e-05
1.47505515204e-06
6.95579631172e-05
1.05370241283e-06
6.97704301888e-05
7.3883096346e-07
6.99131737402e-05
5.08760634627e-07
7.00073854313e-05
3.43917809531e-07
7.00682956723e-05
2.27916743379e-07
7.01066984671e-05
1.47691217568e-07
7.01301416108e-05
9.31755831589e-08
7.01438316383e-05
5.68179614487e-08
7.01513086927e-05
3.30731390974e-08
7.01549421591e-05
1.79442697264e-08
7.01562909458e-05
8.59931965168e-09
7.01563638166e-05
3.06156050306e-09
7.01557728239e-05
-1.79167855248e-11
7.01549128739e-05
-1.59828179947e-09
7.01539901518e-05
-2.24121073528e-09
7.01531223305e-05
-2.35868318991e-09
7.01523630584e-05
-2.19742082977e-09
7.01517295384e-05
-1.90904788909e-09
7.01512189083e-05
-1.58245609098e-09
7.01508182356e-05
-1.26619493639e-09
7.01505105617e-05
-9.84017450776e-10
7.01502782265e-05
-7.44853514869e-10
7.01501050701e-05
-5.49092043195e-10
7.01499780908e-05
-3.92385388576e-10
7.01498866539e-05
-2.69032676204e-10
7.01498236927e-05
-1.73410755979e-10
7.01497817855e-05
-1.01329599655e-10
7.01497527067e-05
-4.59434348305e-11
7.01497219774e-05
3.37636804532e-12
7.01496982188e-05
3.21666878919e-11
7.0149684887e-05
5.82171631842e-11
7.01496739464e-05
8.04110291852e-11
7.01496637205e-05
9.95937666456e-11
7.0149653445e-05
1.1697412754e-10
7.01496427912e-05
1.33318568421e-10
7.01496316479e-05
1.48951292034e-10
7.01496200588e-05
1.63824723184e-10
7.01496078944e-05
1.77531515874e-10
7.01495937796e-05
1.89446679203e-10
7.01495796042e-05
1.98626211591e-10
7.01495662241e-05
2.0326945507e-10
7.01495543956e-05
2.00920395006e-10
7.01495446249e-05
1.88470797476e-10
7.01495362795e-05
1.62346891065e-10
7.01495265367e-05
1.19079838034e-10
7.01495237573e-05
4.62539764639e-11
7.01495127957e-05
-9.24227968019e-11
7.01495283937e-05
-3.78067971073e-10
7.01495552247e-05
-7.73577177143e-10
7.01495823162e-05
-1.3533148128e-09
7.01495886822e-05
-2.20386248027e-09
7.01495477079e-05
-3.44130055632e-09
7.01494062958e-05
-5.24669872055e-09
7.01490657012e-05
-7.89339096406e-09
7.0148351133e-05
-1.17920301268e-08
7.01469612848e-05
-1.75671897987e-08
7.01443853321e-05
-2.61744564055e-08
7.01397502753e-05
-3.90582722406e-08
7.01315763621e-05
-5.84360126286e-08
7.01173753941e-05
-8.77246363703e-08
7.00929960388e-05
-1.32182217365e-07
7.00513546256e-05
-1.99508630067e-07
6.99804860886e-05
-3.01021297104e-07
6.98604387805e-05
-4.52606900505e-07
6.96587916597e-05
-6.74879782454e-07
6.93256698752e-05
-9.90773602161e-07
6.87915856793e-05
-1.41774603615e-06
6.79740442246e-05
-1.95449599087e-06
-2.55500105588e-06
6.68150928617e-05
5.08804128241e-05
7.87227132089e-07
5.31704652902e-05
2.16453020138e-06
5.62177483937e-05
3.00906736596e-06
5.94382679867e-05
3.30264754502e-06
6.24449674402e-05
3.18548914713e-06
6.50382505682e-05
2.8247341802e-06
6.71548639197e-05
2.35976719197e-06
6.88135622747e-05
1.88532021826e-06
7.00731682192e-05
1.45476787982e-06
7.10056652088e-05
1.09133044721e-06
7.16812616109e-05
7.99458733962e-07
7.21614211577e-05
5.73542893996e-07
7.24966023503e-05
4.03649845299e-07
7.27264792379e-05
2.78883872317e-07
7.28812785329e-05
1.89118697378e-07
7.29834687522e-05
1.25726773448e-07
7.30494130663e-05
8.17472313575e-08
7.30908157736e-05
5.17732919088e-08
7.31159103808e-05
3.17238609284e-08
7.31303956146e-05
1.85884983457e-08
7.31381510896e-05
1.0189464789e-08
7.31417723102e-05
4.97883157563e-09
7.31429608261e-05
1.87381674991e-09
7.31428151315e-05
1.28560337389e-10
7.31419926535e-05
-7.75036208068e-10
7.31409104202e-05
-1.15825190894e-09
7.31397961522e-05
-1.24375384289e-09
7.31387692458e-05
-1.16993531096e-09
7.31378821646e-05
-1.0214845559e-09
7.31371488129e-05
-8.48730974684e-10
7.3136561792e-05
-6.78907511048e-10
7.31361037101e-05
-5.25785756878e-10
7.31357536883e-05
-3.9480878828e-10
7.31354910965e-05
-2.86599613811e-10
7.31352975902e-05
-1.99100326929e-10
7.31351575461e-05
-1.29326320721e-10
7.31350577048e-05
-7.40172231503e-11
7.31349854201e-05
-2.95888610518e-11
7.31349319569e-05
6.9020458787e-12
7.31349015889e-05
3.30830310976e-11
7.31348777455e-05
5.53423166216e-11
7.31348603549e-05
7.49823111741e-11
7.31348474403e-05
9.27022263467e-11
7.31348372766e-05
1.09217560833e-10
7.31348285988e-05
1.25207149035e-10
7.31348205482e-05
1.41033998421e-10
7.31348125352e-05
1.56757301266e-10
7.31348041457e-05
1.72146031702e-10
7.31347951174e-05
1.86635062753e-10
7.31347854334e-05
1.99353348956e-10
7.31347751706e-05
2.09262875236e-10
7.31347644087e-05
2.14552188197e-10
7.31347532985e-05
2.12705754595e-10
7.31347421508e-05
2.00451189826e-10
7.31347316419e-05
1.73804829019e-10
7.31347232235e-05
1.28603522647e-10
7.31347074214e-05
6.32525310725e-11
7.31346870772e-05
-7.07476835426e-11
7.31346485755e-05
-3.38135948552e-10
7.31345857091e-05
-7.0928759368e-10
7.31344748495e-05
-1.24105055138e-09
7.31342729633e-05
-2.00053581325e-09
7.31339121615e-05
-3.07905356864e-09
7.31332776402e-05
-4.61075247022e-09
7.31321765945e-05
-6.79098364163e-09
7.31302876225e-05
-9.90177292793e-09
7.31270832385e-05
-1.43615830446e-08
7.31217090337e-05
-2.07990961429e-08
7.31127536655e-05
-3.01018292782e-08
7.30979136861e-05
-4.35950452364e-08
7.30734821913e-05
-6.32922520507e-08
7.30335647352e-05
-9.22639879499e-08
7.29686530651e-05
-1.34596327101e-07
7.28637362957e-05
-1.96104040609e-07
7.26956582218e-05
-2.84528512123e-07
7.24299342268e-05
-4.09155687793e-07
7.20182269189e-05
-5.79066407716e-07
7.1399374987e-05
-7.98894259094e-07
7.05078780661e-05
-1.06299951187e-06
-1.3463024443e-06
6.92991789536e-05
5.07871722272e-05
5.46755159201e-11
5.29516489555e-05
5.30476647668e-11
5.59606871108e-05
2.88508106669e-11
5.92633201494e-05
1.41810778996e-11
6.24488063058e-05
2.69798498268e-12
6.52735465072e-05
-6.27253752454e-12
6.7633325742e-05
-1.22497321189e-11
6.9518661084e-05
-1.5283587604e-11
7.09734446614e-05
-1.5808752167e-11
7.20647894693e-05
-1.44252239933e-11
7.28642599483e-05
-1.17643472211e-11
7.34378113446e-05
-8.47517463871e-12
7.38414664766e-05
-5.20860081219e-12
7.41203530866e-05
-2.60089040237e-12
7.43094732112e-05
-1.2223782743e-12
7.44352017748e-05
-1.50833272813e-12
7.45169530345e-05
-3.65946069181e-12
7.4568734244e-05
-7.45335319287e-12
7.46004709137e-05
-1.22472794576e-11
7.46190771204e-05
-1.70578407618e-11
7.46292880632e-05
-2.07540251783e-11
7.46342899183e-05
-2.22450617052e-11
7.46361856152e-05
-2.10747454602e-11
7.46363335111e-05
-1.85290499703e-11
7.46355750439e-05
-1.57889509635e-11
7.46344299525e-05
-1.24329296987e-11
7.46331954898e-05
-8.63654213205e-12
7.463203058e-05
-4.4604944571e-12
7.46310090456e-05
5.1230600445e-13
7.46301559799e-05
4.68561500545e-12
7.46294678219e-05
9.48549389374e-12
7.46289275893e-05
1.45616966415e-11
7.46285128748e-05
1.98904652412e-11
7.46282005809e-05
2.55466306347e-11
7.46279694957e-05
3.17094676442e-11
7.46278012807e-05
3.84949486014e-11
7.46276807797e-05
4.59777335887e-11
7.46275964648e-05
5.4123504742e-11
7.46275398244e-05
6.2867452156e-11
7.46275001717e-05
7.20112003226e-11
7.46274733414e-05
8.14261615085e-11
7.46274555784e-05
9.20409647934e-11
7.46274438933e-05
1.03718949777e-10
7.46274361171e-05
1.16407698985e-10
7.46274307342e-05
1.30111169231e-10
7.46274266877e-05
1.44721318017e-10
7.46274232476e-05
1.59975967456e-10
7.46274198918e-05
1.75429650115e-10
7.46274162028e-05
1.90401701022e-10
7.46274118337e-05
2.03951851259e-10
7.46274066153e-05
2.14866796614e-10
7.46274003404e-05
2.21363176755e-10
7.46273926442e-05
2.21086728597e-10
7.46273828687e-05
2.11084349809e-10
7.46273697616e-05
1.87886767228e-10
7.46273516906e-05
1.47811461202e-10
7.46273277139e-05
8.84477560328e-11
7.46272837666e-05
-2.55233128623e-11
7.46271980363e-05
-2.50902388651e-10
7.46270649466e-05
-5.74636498722e-10
7.46268446487e-05
-1.01930332527e-09
7.46264766221e-05
-1.6310373929e-09
7.46258647164e-05
-2.465666684e-09
7.46248523271e-05
-3.59688802199e-09
7.46231845399e-05
-5.12177060522e-09
7.46204452018e-05
-7.16109287313e-09
7.46159670966e-05
-9.8822128867e-09
7.46086933513e-05
-1.35241589609e-08
7.45968894948e-05
-1.82968661546e-08
7.45777565299e-05
-2.44610652087e-08
7.45468754574e-05
-3.24102637406e-08
7.44975222045e-05
-4.29099294521e-08
7.44189686147e-05
-5.60420725015e-08
7.42948263782e-05
-7.19612882829e-08
7.41007319525e-05
-9.04337311393e-08
7.3801891439e-05
-1.10315020736e-07
7.33516771574e-05
-1.28852207791e-07
7.26936639453e-05
-1.40881229775e-07
7.17698846449e-05
-1.3922060753e-07
-1.15389743251e-07
7.05389714353e-05
5.07871711916e-05