/*--------------------------------*- C++ -*----------------------------------*\
| =========                 |                                                 |
| \\      /  F ield         | OpenFOAM: The Open Source CFD Toolbox           |
|  \\    /   O peration     | Version:  2106                                  |
|   \\  /    A nd           | Website:  www.openfoam.com                      |
|    \\/     M anipulation  |                                                 |
\*---------------------------------------------------------------------------*/
FoamFile
{
    version     2.0;
    format      ascii;
    arch        "LSB;label=32;scalar=64";
    class       volVectorField;
    location    "0.48";
    object      U;
}
// * * * * * * * * * * * * * * * * * * * * * * * * * * * * * * * * * * * * * //

dimensions      [0 1 -1 0 0 0 0];

internalField   nonuniform List<vector> 
11200
(
(0.662462403382 0.150569443605 0)
(0.558948667752 0.103243389588 0)
(0.383850723845 0.0513512253929 0)
(0.283747575372 0.0248708563961 0)
(0.232075245137 0.0124170462698 0)
(0.201908558139 0.00662281767883 0)
(0.183197902277 0.00380291496338 0)
(0.17127645752 0.00231587025302 0)
(0.163510276614 0.00146450641015 0)
(0.158388743012 0.000944892039901 0)
(0.15500660888 0.000615176416952 0)
(0.152786659516 0.0004022333373 0)
(0.151346515785 0.000264231798853 0)
(0.150428285627 0.000175249760428 0)
(0.149856688475 0.00011836027528 0)
(0.149512494299 8.2159562586e-05 0)
(0.149314940701 5.88654780314e-05 0)
(0.149209585245 4.33152545273e-05 0)
(0.149159731653 3.29340242447e-05 0)
(0.149142496706 2.81855918646e-05 0)
(0.149144656478 2.76832639149e-05 0)
(0.149156935348 2.98889455057e-05 0)
(0.149172559739 3.30490247814e-05 0)
(0.149188109908 3.59642998436e-05 0)
(0.149202321372 3.85995329211e-05 0)
(0.149214594 4.10383786912e-05 0)
(0.149224759817 4.33155127567e-05 0)
(0.149232925334 4.54620962051e-05 0)
(0.149239326887 4.75173908147e-05 0)
(0.149244246216 4.95284560778e-05 0)
(0.149247967883 5.15576989545e-05 0)
(0.149250759274 5.3696210705e-05 0)
(0.149252817456 5.60255830735e-05 0)
(0.149254311902 5.84076338835e-05 0)
(0.149255375342 6.0768974275e-05 0)
(0.149256094232 6.30903022518e-05 0)
(0.149256565247 6.53819684798e-05 0)
(0.149256872194 6.76570222373e-05 0)
(0.149257068594 6.99269516462e-05 0)
(0.149257183853 7.21977238909e-05 0)
(0.149257239329 7.44704168417e-05 0)
(0.149257252923 7.67459593263e-05 0)
(0.149257237378 7.90241388792e-05 0)
(0.149257202081 8.13038697426e-05 0)
(0.149257154027 8.35832914634e-05 0)
(0.149257098132 8.58602811948e-05 0)
(0.14925703872 8.81321191711e-05 0)
(0.149256980364 9.03957056404e-05 0)
(0.149256928132 9.26478065075e-05 0)
(0.149256887599 9.48854322362e-05 0)
(0.149256866004 9.71054518766e-05 0)
(0.149256873392 9.93049856534e-05 0)
(0.149256923205 0.000101481046097 0)
(0.149257033645 0.000103630178349 0)
(0.149257230393 0.000105747906145 0)
(0.149257549447 0.000107828621571 0)
(0.149258042075 0.000109864903892 0)
(0.149258783736 0.000111847155515 0)
(0.149259883765 0.00011376281165 0)
(0.149261500223 0.000115586556199 0)
(0.149263882156 0.000117261785154 0)
(0.149267436992 0.000118707237582 0)
(0.149272629431 0.000119963703521 0)
(0.149280109418 0.000121226373815 0)
(0.14929091194 0.000122961001819 0)
(0.149306559555 0.000125337781813 0)
(0.149329441809 0.00012811761768 0)
(0.149363254832 0.000131076111352 0)
(0.149413592401 0.000133998992652 0)
(0.149488684073 0.000136774248398 0)
(0.149600464259 0.000140684041812 0)
(0.149771781696 0.000151559685935 0)
(0.150040396406 0.000172277934493 0)
(0.15046944696 0.000202513414843 0)
(0.151194726394 0.000232422207469 0)
(0.152493849438 0.000191613226763 0)
(0.15502289884 -0.000216778296391 0)
(0.162376013885 -0.00210988845449 0)
(0.187702961162 -0.0107874761897 0)
(0.204355226572 -0.0496544722062 0)
(0.965408252925 0.289214706581 0)
(0.961962851225 0.252656040726 0)
(0.823574373353 0.159021442422 0)
(0.698139340611 0.0959957321491 0)
(0.610225426562 0.0582481152102 0)
(0.54897144633 0.036214854216 0)
(0.506588836368 0.0231612859203 0)
(0.477567210637 0.0151375157654 0)
(0.457745429361 0.0100177553062 0)
(0.444228396307 0.00665814121504 0)
(0.435053234216 0.00441555642877 0)
(0.428873055758 0.00290686626199 0)
(0.424754143015 0.00189105905197 0)
(0.422046597853 0.00121004604836 0)
(0.420297766557 0.000757164031613 0)
(0.419193164142 0.000459256306619 0)
(0.418515566243 0.000265855056551 0)
(0.418116426968 0.000142399748983 0)
(0.417895831505 6.61094456528e-05 0)
(0.417786788833 2.30918994317e-05 0)
(0.417745383116 1.40662096257e-06 0)
(0.417742114965 -1.01650642047e-05 0)
(0.417756722059 -1.37171757796e-05 0)
(0.417778690676 -1.32711090396e-05 0)
(0.417802995249 -1.08390695248e-05 0)
(0.417826376152 -7.49586828701e-06 0)
(0.417847139758 -3.87905567362e-06 0)
(0.417864687066 -3.58793652739e-07 0)
(0.41787902168 2.86333586908e-06 0)
(0.417890459097 5.68325553541e-06 0)
(0.417899470714 8.03643637309e-06 0)
(0.417906548761 9.838236314e-06 0)
(0.417911895483 1.10069584663e-05 0)
(0.417915744733 1.18603569903e-05 0)
(0.417918474273 1.26845688253e-05 0)
(0.417920359472 1.34424768e-05 0)
(0.417921642711 1.41172513357e-05 0)
(0.417922515419 1.47334423936e-05 0)
(0.417923103605 1.5319817995e-05 0)
(0.417923479408 1.58895941358e-05 0)
(0.417923696121 1.64432751355e-05 0)
(0.417923797865 1.69858295928e-05 0)
(0.417923815943 1.7521027372e-05 0)
(0.417923773403 1.80525002082e-05 0)
(0.417923687414 1.85831673536e-05 0)
(0.417923570344 1.91156166468e-05 0)
(0.417923433039 1.96518351622e-05 0)
(0.41792328654 2.01935877706e-05 0)
(0.417923143252 2.07427552511e-05 0)
(0.417923017091 2.13014245748e-05 0)
(0.417922926365 2.18697361862e-05 0)
(0.417922896377 2.24478865019e-05 0)
(0.41792296122 2.30358320478e-05 0)
(0.417923167401 2.36331850128e-05 0)
(0.417923580408 2.42392589742e-05 0)
(0.417924292518 2.48536784941e-05 0)
(0.417925436229 2.54723682041e-05 0)
(0.417927206904 2.60841508192e-05 0)
(0.417929882598 2.66729584051e-05 0)
(0.417933852907 2.72073880449e-05 0)
(0.417939727227 2.76352129299e-05 0)
(0.417948604243 2.79131678807e-05 0)
(0.417961965623 2.82009460861e-05 0)
(0.417981955747 2.77316204652e-05 0)
(0.418011331976 2.50951521401e-05 0)
(0.418053704403 1.9244574732e-05 0)
(0.418115279076 9.3712693827e-06 0)
(0.418206176753 -6.06165393876e-06 0)
(0.418341999848 -2.95788174111e-05 0)
(0.418547643569 -6.48595259447e-05 0)
(0.418865002472 -0.000116090595005 0)
(0.419363658432 -0.000188235411974 0)
(0.420157061921 -0.000308024764911 0)
(0.421448848584 -0.000533001908455 0)
(0.423630598988 -0.000999960634951 0)
(0.427420875988 -0.00209053670327 0)
(0.434241570344 -0.00485612369554 0)
(0.448267106157 -0.012252864662 0)
(0.47464352721 -0.0342383046565 0)
(0.478159989997 -0.0987596824013 0)
(1.02222096366 0.238416183305 0)
(1.08213752155 0.295926650707 0)
(1.03447720952 0.239503064685 0)
(0.95461538437 0.174290163039 0)
(0.879992023805 0.12134546743 0)
(0.818614397931 0.0830993835265 0)
(0.771410808525 0.0567316667982 0)
(0.736634346009 0.0387409684051 0)
(0.711624387391 0.0264327871039 0)
(0.693916577252 0.0179731051319 0)
(0.681541371272 0.0121424488728 0)
(0.673000084406 0.00812490968042 0)
(0.667180626377 0.00536632293101 0)
(0.663271664469 0.00348444679493 0)
(0.660688501985 0.00221256343538 0)
(0.659014186838 0.0013633834388 0)
(0.65795451532 0.000805245038928 0)
(0.657304231942 0.000445917403753 0)
(0.656921823065 0.000221068717099 0)
(0.65671026728 8.55805794853e-05 0)
(0.65660341242 8.35651549395e-06 0)
(0.656561873106 -3.37223039091e-05 0)
(0.65655798242 -5.68575274321e-05 0)
(0.656571467417 -6.68765585827e-05 0)
(0.656593006091 -6.84834926143e-05 0)
(0.65661683459 -6.55611356286e-05 0)
(0.656639645374 -6.05487732411e-05 0)
(0.656659831277 -5.48571180164e-05 0)
(0.656676806641 -4.92707436989e-05 0)
(0.656690549006 -4.4196803443e-05 0)
(0.656701304415 -3.98305394576e-05 0)
(0.656709457705 -3.62903678482e-05 0)
(0.656715706175 -3.3681984409e-05 0)
(0.656720739131 -3.1842137272e-05 0)
(0.656724596849 -3.0795545804e-05 0)
(0.656727294977 -3.02883301936e-05 0)
(0.656729148254 -3.02350906717e-05 0)
(0.656730435865 -3.05464552711e-05 0)
(0.656731324534 -3.10739579263e-05 0)
(0.656731904778 -3.17361293682e-05 0)
(0.656732251581 -3.25031816643e-05 0)
(0.656732430895 -3.33402559411e-05 0)
(0.656732488565 -3.42229129391e-05 0)
(0.656732458887 -3.51313511241e-05 0)
(0.656732367418 -3.60503378965e-05 0)
(0.656732233146 -3.69690061434e-05 0)
(0.656732072529 -3.78796168887e-05 0)
(0.656731902314 -3.87767483779e-05 0)
(0.656731740503 -3.96559759531e-05 0)
(0.656731605857 -4.05114741792e-05 0)
(0.656731522999 -4.13401000772e-05 0)
(0.656731528026 -4.21379645019e-05 0)
(0.656731670377 -4.29036257356e-05 0)
(0.656732018765 -4.36409589005e-05 0)
(0.656732670826 -4.43644391165e-05 0)
(0.656733761881 -4.51046165684e-05 0)
(0.656735481795 -4.59191119179e-05 0)
(0.656738112477 -4.69019041221e-05 0)
(0.656742063171 -4.81771590954e-05 0)
(0.656747929907 -4.99681170045e-05 0)
(0.656756656588 -5.27949662202e-05 0)
(0.656769894264 -5.7629536547e-05 0)
(0.656788931966 -6.53016042448e-05 0)
(0.656815218433 -7.66601554282e-05 0)
(0.656852636942 -9.34125407431e-05 0)
(0.656907900328 -0.000117944808272 0)
(0.65699037419 -0.000153462526883 0)
(0.657113855061 -0.000205256384692 0)
(0.657300165783 -0.000281846781537 0)
(0.657584704033 -0.000397107144255 0)
(0.658025598993 -0.000575384158613 0)
(0.658712035583 -0.00086393812767 0)
(0.659791053824 -0.00135282215904 0)
(0.661520160399 -0.00221512035012 0)
(0.66434143654 -0.00381330394461 0)
(0.668950484968 -0.00694602437416 0)
(0.676372916651 -0.0133516181057 0)
(0.688616099928 -0.0268405120352 0)
(0.705238306347 -0.0563120475637 0)
(0.700486324165 -0.113066635535 0)
(1.02251475255 0.170807146257 0)
(1.10138974892 0.276496474977 0)
(1.11752424469 0.266664795884 0)
(1.09214658187 0.21990169598 0)
(1.05187812594 0.168168845152 0)
(1.01020818866 0.123567394691 0)
(0.973494650397 0.0888375200044 0)
(0.943864512263 0.0630063704507 0)
(0.921142754164 0.0442232035224 0)
(0.904284027514 0.0307423927945 0)
(0.892074825795 0.0211562948345 0)
(0.883404471861 0.014395469883 0)
(0.877352637843 0.00966794998641 0)
(0.873197682294 0.00639383904864 0)
(0.870392913873 0.00415116638603 0)
(0.868534034063 0.00263449184082 0)
(0.86732764651 0.00162401743799 0)
(0.866564252981 0.000962674998104 0)
(0.866096505507 0.000539120225121 0)
(0.865822273522 0.000275150216767 0)
(0.865671440208 0.000117064021238 0)
(0.865595200376 2.87877859402e-05 0)
(0.865564153753 -1.93293878371e-05 0)
(0.865561357238 -4.126537843e-05 0)
(0.865572712377 -4.76686291726e-05 0)
(0.865589729706 -4.55267248259e-05 0)
(0.865608050052 -3.91555179698e-05 0)
(0.865625399184 -3.11425669208e-05 0)
(0.865640692891 -2.29590824649e-05 0)
(0.865653563968 -1.53728168116e-05 0)
(0.865664043821 -8.71256741267e-06 0)
(0.865672335429 -3.0308315068e-06 0)
(0.865678690526 1.74959207863e-06 0)
(0.865683316512 5.47997401259e-06 0)
(0.865686632548 8.04412336152e-06 0)
(0.865689024182 9.79953420629e-06 0)
(0.865690648886 1.11553877842e-05 0)
(0.865691804705 1.23013251047e-05 0)
(0.86569266317 1.32717962996e-05 0)
(0.865693244324 1.41580509553e-05 0)
(0.865693597471 1.49522853632e-05 0)
(0.865693787413 1.56774292567e-05 0)
(0.865693854087 1.63488600209e-05 0)
(0.865693829255 1.69834663458e-05 0)
(0.865693735603 1.75958840698e-05 0)
(0.865693590434 1.81962540735e-05 0)
(0.865693409206 1.87923017424e-05 0)
(0.865693209196 1.93901029039e-05 0)
(0.865693011966 1.99966771494e-05 0)
(0.865692841076 2.06217613376e-05 0)
(0.865692726577 2.12504611772e-05 0)
(0.865692710694 2.18700856944e-05 0)
(0.865692847075 2.24637451291e-05 0)
(0.86569320582 2.30051698833e-05 0)
(0.865693882179 2.3459644831e-05 0)
(0.865695006565 2.37973018861e-05 0)
(0.865696765573 2.39650735211e-05 0)
(0.865699456073 2.38477556433e-05 0)
(0.86570347996 2.33043116607e-05 0)
(0.865709247325 2.19144264162e-05 0)
(0.865717262423 1.91216609782e-05 0)
(0.865729132278 1.41872334982e-05 0)
(0.865747429798 5.29658550251e-06 0)
(0.865775141283 -9.11432053465e-06 0)
(0.865816128328 -3.10484485838e-05 0)
(0.865876322844 -6.44820740313e-05 0)
(0.865965071437 -0.000116289465984 0)
(0.866096893738 -0.000197229128133 0)
(0.866294343406 -0.000324557616387 0)
(0.866592241267 -0.000526742863137 0)
(0.867044187735 -0.000852718740356 0)
(0.867735234113 -0.00138939961352 0)
(0.86880170164 -0.00228551080892 0)
(0.870456787389 -0.00381556800836 0)
(0.873019265365 -0.00650368219433 0)
(0.876887836515 -0.011359013959 0)
(0.882384692348 -0.0202501839372 0)
(0.889692575241 -0.0364470510135 0)
(0.896365917708 -0.0654800790979 0)
(0.886534280162 -0.110019803245 0)
(1.01287874851 0.11896101584 0)
(1.08820669838 0.231806932548 0)
(1.13741365326 0.253106760556 0)
(1.15409084188 0.228992749887 0)
(1.14994207672 0.188368355845 0)
(1.13538461685 0.146579841602 0)
(1.11758890588 0.110150963834 0)
(1.10059495723 0.0808162207486 0)
(1.08612452563 0.058226575593 0)
(1.0745908801 0.0413189847909 0)
(1.06579142529 0.0289160205646 0)
(1.0592879523 0.0199601007508 0)
(1.05459973343 0.013581561086 0)
(1.05129074274 0.00909744402976 0)
(1.04899983332 0.00598615436625 0)
(1.04744339918 0.00385696607286 0)
(1.04640653533 0.00242159659904 0)
(1.04573063007 0.00147014773424 0)
(1.04530108509 0.000851698485175 0)
(1.04503659876 0.000459011929675 0)
(1.04488024738 0.000216751767943 0)
(1.04479264285 7.30125778207e-05 0)
(1.04474878982 -5.50868497761e-06 0)
(1.04473190277 -4.40122313549e-05 0)
(1.04472966445 -5.93881050225e-05 0)
(1.04473516038 -6.17200518475e-05 0)
(1.04474411959 -5.72444482823e-05 0)
(1.04475401383 -4.98003378711e-05 0)
(1.04476346312 -4.16389285747e-05 0)
(1.04477179705 -3.39814160081e-05 0)
(1.04477876498 -2.74145056479e-05 0)
(1.04478435405 -2.2141866351e-05 0)
(1.04478870995 -1.81180984952e-05 0)
(1.04479204455 -1.51288315102e-05 0)
(1.0447946131 -1.27955056819e-05 0)
(1.04479671091 -1.09969591365e-05 0)
(1.0447984458 -9.50277698484e-06 0)
(1.04479976222 -8.21089380613e-06 0)
(1.04480073234 -7.19350214016e-06 0)
(1.04480140684 -6.52842726606e-06 0)
(1.04480181032 -6.15182387829e-06 0)
(1.04480202914 -5.94623511068e-06 0)
(1.04480210964 -5.86209604459e-06 0)
(1.0448020909 -5.84776854958e-06 0)
(1.0448019978 -5.86331788926e-06 0)
(1.04480184933 -5.88976103161e-06 0)
(1.0448016632 -5.91736171018e-06 0)
(1.04480146076 -5.94162182187e-06 0)
(1.0448012684 -5.96541736649e-06 0)
(1.04480109374 -6.00211178105e-06 0)
(1.04480095239 -6.03491097987e-06 0)
(1.04480089009 -6.06195465755e-06 0)
(1.04480096189 -6.09006413872e-06 0)
(1.04480124551 -6.13523172373e-06 0)
(1.04480186871 -6.2401252988e-06 0)
(1.04480299887 -6.52947061906e-06 0)
(1.04480482348 -7.25615490573e-06 0)
(1.0448076536 -8.69563796721e-06 0)
(1.0448117929 -1.1347038888e-05 0)
(1.0448177165 -1.51898758736e-05 0)
(1.04482642982 -2.01162622139e-05 0)
(1.04483908471 -2.63769224071e-05 0)
(1.04485699884 -3.62257037042e-05 0)
(1.04488246675 -5.26520257797e-05 0)
(1.04491895978 -7.9866826198e-05 0)
(1.04497163739 -0.000124113405002 0)
(1.04504810743 -0.000195160727759 0)
(1.04515972402 -0.000308587504067 0)
(1.04532363966 -0.000489556411784 0)
(1.04556572273 -0.000779082574334 0)
(1.04592465289 -0.00124446792366 0)
(1.04645827873 -0.0019973264229 0)
(1.04725069973 -0.00322814500619 0)
(1.0484148278 -0.00526760704566 0)
(1.05007791084 -0.00869238135941 0)
(1.05229651591 -0.0144959019606 0)
(1.05482654268 -0.0242846737641 0)
(1.05687833442 -0.0403677742451 0)
(1.05574625021 -0.0655832765438 0)
(1.04213366313 -0.0994326662547 0)
(1.00447483175 0.0814039894857 0)
(1.06917236298 0.181288534406 0)
(1.1308056682 0.21695041436 0)
(1.173749978 0.210789151327 0)
(1.19865262001 0.183690073046 0)
(1.21019984352 0.149751679916 0)
(1.21350251773 0.116779141052 0)
(1.21251719896 0.0882206751735 0)
(1.20973094131 0.0650481485893 0)
(1.20651115617 0.0470209069608 0)
(1.20351909631 0.0334068069146 0)
(1.20101142006 0.0233557310834 0)
(1.19903442583 0.0160720123351 0)
(1.19753876162 0.0108795119208 0)
(1.19644130515 0.00723418570708 0)
(1.19565558513 0.0047135153279 0)
(1.19510489868 0.00299762497105 0)
(1.1947264957 0.00184915579011 0)
(1.19447152537 0.00109495457518 0)
(1.19430322637 0.000610604952223 0)
(1.19419459886 0.000307979952136 0)
(1.19412632635 0.000125762232628 0)
(1.19408528882 2.22176392709e-05 0)
(1.19406204223 -3.24561751533e-05 0)
(1.19404975387 -5.72729023657e-05 0)
(1.19404426633 -6.45963996587e-05 0)
(1.19404277865 -6.23720312354e-05 0)
(1.19404347215 -5.55147380719e-05 0)
(1.19404523089 -4.69349473834e-05 0)
(1.19404739652 -3.82462334258e-05 0)
(1.19404959648 -3.02497507162e-05 0)
(1.19405163878 -2.32504963658e-05 0)
(1.1940534538 -1.72718273501e-05 0)
(1.1940550365 -1.22400391181e-05 0)
(1.19405640321 -8.04904904531e-06 0)
(1.19405757235 -4.64554286902e-06 0)
(1.19405851555 -2.03672291071e-06 0)
(1.19405917809 -1.50209850468e-07 0)
(1.1940595219 1.1619061865e-06 0)
(1.19405962724 2.01676598146e-06 0)
(1.1940596743 2.69489241464e-06 0)
(1.19405969642 3.29664369589e-06 0)
(1.19405967082 3.82087949248e-06 0)
(1.19405961553 4.27591043688e-06 0)
(1.1940595241 4.67561365811e-06 0)
(1.19405938921 5.03655251616e-06 0)
(1.19405921458 5.37100326637e-06 0)
(1.19405900876 5.68253937798e-06 0)
(1.19405878116 5.96333700405e-06 0)
(1.19405857373 6.19614339551e-06 0)
(1.19405843381 6.40390990049e-06 0)
(1.19405839112 6.57961671114e-06 0)
(1.19405849417 6.6963175338e-06 0)
(1.19405879774 6.71263430039e-06 0)
(1.19405932958 6.56675438962e-06 0)
(1.19406007714 6.16072129451e-06 0)
(1.19406114215 5.35864648253e-06 0)
(1.19406267328 3.74199603382e-06 0)
(1.19406538356 9.47754009096e-07 0)
(1.19407029032 -3.34483495846e-06 0)
(1.19407785866 -9.92070743835e-06 0)
(1.19408804816 -2.01411672199e-05 0)
(1.19410166111 -3.60379760055e-05 0)
(1.19412068754 -6.05347792468e-05 0)
(1.19414725442 -9.82150909748e-05 0)
(1.19418419208 -0.000156399473518 0)
(1.19423549906 -0.000246735987489 0)
(1.19430681772 -0.000387705918254 0)
(1.19440604442 -0.00060876745331 0)
(1.19454396976 -0.000957248971103 0)
(1.19473464891 -0.00150965050444 0)
(1.19499486611 -0.00239023418867 0)
(1.19533945186 -0.00380218714546 0)
(1.1957656791 -0.00607835998494 0)
(1.19621322869 -0.0097574533356 0)
(1.19646238908 -0.015683037798 0)
(1.19592639511 -0.0250656150573 0)
(1.19345084923 -0.0393602232612 0)
(1.1867009699 -0.0598089838081 0)
(1.17015904144 -0.0851007546907 0)
(0.998962322482 0.0544316177575 0)
(1.05310955765 0.133401603694 0)
(1.11628266303 0.170777554291 0)
(1.17301269314 0.175143868068 0)
(1.21791243008 0.159583602531 0)
(1.25049854186 0.134951016492 0)
(1.27288487099 0.108411653407 0)
(1.28776717899 0.0838849685956 0)
(1.29745263738 0.0630565693294 0)
(1.30366070938 0.0462999185691 0)
(1.3075923057 0.0333205121223 0)
(1.31005366845 0.0235495212367 0)
(1.31157359888 0.0163599046366 0)
(1.31249490945 0.0111713114132 0)
(1.31303861141 0.00749150212383 0)
(1.31334671288 0.00492448025172 0)
(1.3135101375 0.00316294836153 0)
(1.313586779 0.00197474379088 0)
(1.31361316788 0.0011881878248 0)
(1.31361203186 0.000678619617771 0)
(1.31359720852 0.000356998738045 0)
(1.31357690226 0.000160745046924 0)
(1.31355592312 4.64614725922e-05 0)
(1.31353664325 -1.58754136003e-05 0)
(1.31352000073 -4.60612953782e-05 0)
(1.31350632653 -5.7068543946e-05 0)
(1.31349543578 -5.73203181526e-05 0)
(1.31348699102 -5.20787527023e-05 0)
(1.31348060387 -4.45133287548e-05 0)
(1.31347588913 -3.6448576443e-05 0)
(1.31347249557 -2.88577135609e-05 0)
(1.31347012025 -2.2194238204e-05 0)
(1.31346850273 -1.6609805271e-05 0)
(1.31346741489 -1.21119745519e-05 0)
(1.31346669132 -8.63535722036e-06 0)
(1.31346623425 -6.07861562815e-06 0)
(1.31346594234 -4.30447365648e-06 0)
(1.31346572669 -3.10392298844e-06 0)
(1.31346558914 -2.245540839e-06 0)
(1.31346561432 -1.52711692825e-06 0)
(1.31346576034 -9.55299362615e-07 0)
(1.31346585042 -5.46219498617e-07 0)
(1.31346583475 -1.88354909584e-07 0)
(1.31346574885 1.42969796066e-07 0)
(1.31346561462 4.46754502893e-07 0)
(1.31346544445 7.31967189289e-07 0)
(1.31346524237 1.01031434029e-06 0)
(1.31346501147 1.29178224377e-06 0)
(1.31346476155 1.58587197829e-06 0)
(1.31346452619 1.89618719968e-06 0)
(1.31346432976 2.17265060591e-06 0)
(1.3134641808 2.37608851299e-06 0)
(1.31346411004 2.46158581948e-06 0)
(1.31346417173 2.36527077058e-06 0)
(1.31346445568 2.00366003502e-06 0)
(1.31346508061 1.29494902272e-06 0)
(1.31346599138 1.78993750395e-07 0)
(1.31346733163 -1.50751379594e-06 0)
(1.31346952279 -4.04130432754e-06 0)
(1.31347273638 -8.15441554008e-06 0)
(1.31347720724 -1.51175330095e-05 0)
(1.31348316644 -2.64863931759e-05 0)
(1.31349089916 -4.38648147165e-05 0)
(1.31350089532 -7.04359323895e-05 0)
(1.31351347651 -0.000111231785321 0)
(1.3135287347 -0.000174002722299 0)
(1.3135462991 -0.000270833551343 0)
(1.31356487155 -0.000420683296926 0)
(1.3135812814 -0.000653368437029 0)
(1.31358864802 -0.00101610167504 0)
(1.31357293972 -0.00158386603645 0)
(1.31350675509 -0.00247568178923 0)
(1.31333593185 -0.00387874214903 0)
(1.31295298989 -0.00608529420642 0)
(1.31214806044 -0.00953963081446 0)
(1.31051599611 -0.0148829730948 0)
(1.3073037946 -0.0229430924953 0)
(1.30130242092 -0.0345596461395 0)
(1.29064509933 -0.0501690829291 0)
(1.27186149498 -0.0685437583886 0)
(0.9957360709 0.0346338535712 0)
(1.04179513357 0.0905689183286 0)
(1.10222836995 0.121549562047 0)
(1.16491409343 0.129605830968 0)
(1.22202563543 0.122009265256 0)
(1.26951888875 0.10601993507 0)
(1.30680220394 0.0870975525816 0)
(1.33499531891 0.068636677555 0)
(1.35574474098 0.0523698353435 0)
(1.37069613684 0.0389256140001 0)
(1.38128272887 0.0282980690317 0)
(1.3886626563 0.0201712721935 0)
(1.39373031944 0.0141175045938 0)
(1.39715660145 0.00970532922046 0)
(1.39943435188 0.00655058741466 0)
(1.40091968351 0.00433444572825 0)
(1.40186624056 0.00280413502459 0)
(1.40245227288 0.00176573244308 0)
(1.40280138341 0.00107418398748 0)
(1.40299809419 0.000623223887682 0)
(1.40309933023 0.000336398699701 0)
(1.40314279901 0.000159613917867 0)
(1.40315307528 5.51570106339e-05 0)
(1.40314560271 -3.00236569908e-06 0)
(1.40312985946 -3.21244976658e-05 0)
(1.40311147233 -4.38891123264e-05 0)
(1.40309344882 -4.57561269729e-05 0)
(1.40307731305 -4.24109556392e-05 0)
(1.40306366649 -3.67172640563e-05 0)
(1.40305258283 -3.03518270919e-05 0)
(1.40304385987 -2.42293753045e-05 0)
(1.40303717251 -1.87971204793e-05 0)
(1.40303215888 -1.42235010159e-05 0)
(1.40302846883 -1.05106811699e-05 0)
(1.40302580458 -7.55797880792e-06 0)
(1.40302393387 -5.2404545904e-06 0)
(1.40302268074 -3.43514838424e-06 0)
(1.40302189492 -1.99795764114e-06 0)
(1.40302141014 -8.2605977265e-07 0)
(1.40302102998 1.04114055164e-07 0)
(1.40302069107 8.09113199648e-07 0)
(1.40302047936 1.29237490647e-06 0)
(1.40302037726 1.65866139967e-06 0)
(1.40302029264 1.9733287373e-06 0)
(1.4030201934 2.27227468981e-06 0)
(1.40302007301 2.57360406198e-06 0)
(1.40301993069 2.88627232424e-06 0)
(1.40301976898 3.21451115931e-06 0)
(1.40301959024 3.55854118513e-06 0)
(1.40301938773 3.90955641744e-06 0)
(1.40301917309 4.22615557439e-06 0)
(1.40301898021 4.4755723735e-06 0)
(1.40301883752 4.6187507404e-06 0)
(1.40301876924 4.59736361364e-06 0)
(1.40301878974 4.32221713929e-06 0)
(1.40301890611 3.65058713912e-06 0)
(1.40301914849 2.38015200701e-06 0)
(1.40301948289 3.89154228737e-07 0)
(1.40302015804 -2.76884602379e-06 0)
(1.4030213854 -7.82662584251e-06 0)
(1.40302297456 -1.55931540681e-05 0)
(1.4030246039 -2.73951573223e-05 0)
(1.40302581211 -4.50914028517e-05 0)
(1.40302586111 -7.16719000459e-05 0)
(1.40302326474 -0.000111729232316 0)
(1.40301529115 -0.00017229762698 0)
(1.40299714266 -0.00026425272646 0)
(1.40296064487 -0.000404473819954 0)
(1.40289188019 -0.000619025982999 0)
(1.40276716253 -0.000948516446545 0)
(1.40254648094 -0.00145625756486 0)
(1.40216351831 -0.00224067041559 0)
(1.40150680308 -0.00345078384682 0)
(1.40038809918 -0.00531025647388 0)
(1.39849426282 -0.00814179252313 0)
(1.39531235844 -0.012380026994 0)
(1.39002964602 -0.0185356638866 0)
(1.38149850954 -0.0270460732057 0)
(1.36822373023 -0.0379925534018 0)
(1.34781454816 -0.0504823258793 0)
(0.99401152803 0.0192358017608 0)
(1.0348476254 0.0523338388303 0)
(1.09199260904 0.072363125647 0)
(1.1566241756 0.0791292297938 0)
(1.22032113396 0.0761045437655 0)
(1.27701941961 0.0673339683365 0)
(1.32424415389 0.0561508998703 0)
(1.36181570026 0.0447990068508 0)
(1.39068527319 0.0345303728801 0)
(1.41226071771 0.0258814270606 0)
(1.42801819293 0.0189465177547 0)
(1.43929881693 0.0135849748191 0)
(1.44722805636 0.00955652580714 0)
(1.45270411957 0.00660010568771 0)
(1.45641895331 0.00447417935898 0)
(1.45889144911 0.00297350157756 0)
(1.46050232545 0.00193275617042 0)
(1.46152573533 0.00122368102823 0)
(1.4621557654 0.000749537937301 0)
(1.46252760549 0.000439005808355 0)
(1.46273389866 0.000240510516647 0)
(1.46283705808 0.000117403278882 0)
(1.46287837774 4.40433543585e-05 0)
(1.46288463296 2.68813090655e-06 0)
(1.46287252394 -1.8444465809e-05 0)
(1.46285218771 -2.74352942179e-05 0)
(1.46282965022 -2.94319339813e-05 0)
(1.46280812404 -2.76788321202e-05 0)
(1.4627891371 -2.41741695306e-05 0)
(1.46277323399 -2.00990443401e-05 0)
(1.46276040532 -1.61018490496e-05 0)
(1.46275035667 -1.25057287629e-05 0)
(1.46274267729 -9.43719917233e-06 0)
(1.46273693468 -6.90707894454e-06 0)
(1.46273273017 -4.86168741011e-06 0)
(1.46272972157 -3.23168325584e-06 0)
(1.46272762037 -1.95430818081e-06 0)
(1.4627261687 -9.88716724288e-07 0)
(1.46272515905 -2.89104531092e-07 0)
(1.46272452623 2.303745952e-07 0)
(1.46272415274 7.11886634898e-07 0)
(1.46272389323 1.18580933737e-06 0)
(1.46272371698 1.60528158446e-06 0)
(1.46272358412 1.97922841223e-06 0)
(1.46272346639 2.32855922304e-06 0)
(1.46272334462 2.66691388292e-06 0)
(1.46272320604 2.99974174624e-06 0)
(1.46272304259 3.3249930857e-06 0)
(1.46272285022 3.63281846832e-06 0)
(1.46272262658 3.90986189136e-06 0)
(1.46272237542 4.14750720922e-06 0)
(1.46272210495 4.31402974539e-06 0)
(1.46272182275 4.35803727986e-06 0)
(1.46272153979 4.20899536318e-06 0)
(1.46272127422 3.77653842993e-06 0)
(1.46272104864 2.95363912776e-06 0)
(1.46272081202 1.62107849415e-06 0)
(1.46272048535 -3.67672432744e-07 0)
(1.46271996447 -3.22027499288e-06 0)
(1.46271909644 -7.83734891183e-06 0)
(1.46271759785 -1.49964161811e-05 0)
(1.46271479555 -2.57914339156e-05 0)
(1.46270957729 -4.17724226538e-05 0)
(1.46270013813 -6.53266756818e-05 0)
(1.46268341871 -0.000100059125763 0)
(1.4626542863 -0.00015136799456 0)
(1.46260423642 -0.000227436531546 0)
(1.46251951401 -0.000340747982738 0)
(1.46237767487 -0.000509925254769 0)
(1.46214191 -0.000763386474067 0)
(1.46175226751 -0.00114485719697 0)
(1.4611141657 -0.00172202633267 0)
(1.46007657494 -0.00259065906514 0)
(1.45839862482 -0.003890252166 0)
(1.45570652198 -0.00581314736317 0)
(1.45143507784 -0.00860239495071 0)
(1.44476424846 -0.0125180270734 0)
(1.43462547398 -0.0177403007552 0)
(1.41976006737 -0.0242172108681 0)
(1.39832334541 -0.0314024318602 0)
(0.993269663987 0.00617014810712 0)
(1.03158098922 0.0171020461602 0)
(1.08672179977 0.0239906483493 0)
(1.15174551968 0.026560664919 0)
(1.21823533252 0.0258180572391 0)
(1.27925770696 0.0230488838694 0)
(1.33140132277 0.019365628257 0)
(1.37377594948 0.0155468536985 0)
(1.40691049691 0.0120449248078 0)
(1.43203309954 0.00906639303948 0)
(1.4506021178 0.00666058661826 0)
(1.46402983144 0.00479008181916 0)
(1.47355014014 0.00337841720711 0)
(1.48017562101 0.00233872576495 0)
(1.48470228407 0.00158890064398 0)
(1.48773621162 0.00105827515098 0)
(1.48972736211 0.00068944887868 0)
(1.49100280656 0.000437624805807 0)
(1.49179590244 0.000268872887816 0)
(1.49227029 0.000158099529685 0)
(1.49253879972 8.71149865784e-05 0)
(1.49267789458 4.29677172779e-05 0)
(1.49273844668 1.65806651384e-05 0)
(1.4927536385 1.66306854001e-06 0)
(1.4927444185 -6.06607143317e-06 0)
(1.49272364625 -9.40782988741e-06 0)
(1.49269901656 -1.02106556093e-05 0)
(1.49267475704 -9.64429716732e-06 0)
(1.49265296508 -8.42742141205e-06 0)
(1.49263448237 -6.97814753937e-06 0)
(1.49261943138 -5.53698629123e-06 0)
(1.49260754925 -4.22372428389e-06 0)
(1.49259840659 -3.08573653319e-06 0)
(1.49259152771 -2.12907293338e-06 0)
(1.49258645825 -1.33772015649e-06 0)
(1.49258279845 -6.90006292511e-07 0)
(1.4925802126 -1.64668711901e-07 0)
(1.49257843186 2.60381015023e-07 0)
(1.49257724856 6.32950558337e-07 0)
(1.49257648546 9.98993072649e-07 0)
(1.49257599243 1.3005563426e-06 0)
(1.49257567629 1.58200950463e-06 0)
(1.49257548057 1.85922255905e-06 0)
(1.49257535287 2.14246455989e-06 0)
(1.49257525524 2.4386073465e-06 0)
(1.49257516134 2.75059347485e-06 0)
(1.49257505323 3.07786067865e-06 0)
(1.49257491807 3.41630125535e-06 0)
(1.49257474624 3.75710227414e-06 0)
(1.49257452933 4.08576482568e-06 0)
(1.49257426177 4.38194510192e-06 0)
(1.49257394035 4.61287542782e-06 0)
(1.49257355858 4.73303429094e-06 0)
(1.49257310468 4.68009289005e-06 0)
(1.49257255823 4.36829312408e-06 0)
(1.49257189269 3.67682829388e-06 0)
(1.49257109068 2.44996802436e-06 0)
(1.49257000962 6.2943252966e-07 0)
(1.49256824516 -2.05198626118e-06 0)
(1.49256550699 -6.22444438412e-06 0)
(1.49256138732 -1.2418934926e-05 0)
(1.49255485901 -2.14127655494e-05 0)
(1.49254431547 -3.42966354959e-05 0)
(1.4925272163 -5.26273769808e-05 0)
(1.49249944897 -7.86098963133e-05 0)
(1.49245432073 -0.000115284720029 0)
(1.49238095643 -0.000167023375509 0)
(1.49226228296 -0.000240343015971 0)
(1.49207095792 -0.000343763553869 0)
(1.49176241898 -0.000489815595816 0)
(1.49126436514 -0.000698614095317 0)
(1.49046803452 -0.00100398095986 0)
(1.4892041284 -0.00143845733626 0)
(1.48720689822 -0.00204950591001 0)
(1.48407799812 -0.00289847436446 0)
(1.47923777794 -0.00405285593628 0)
(1.47187967445 -0.00556692672697 0)
(1.46099057784 -0.00744218224826 0)
(1.44542387697 -0.00958457096361 0)
(1.42357101318 -0.0117455887174 0)
(0.993270461813 -0.00616840172865 0)
(1.03158097156 -0.0171003742289 0)
(1.08672173286 -0.0239897607 0)
(1.15174555644 -0.0265602468723 0)
(1.21823540951 -0.0258179941523 0)
(1.27925780797 -0.0230491122412 0)