/*--------------------------------*- C++ -*----------------------------------*\
| =========                 |                                                 |
| \\      /  F ield         | OpenFOAM: The Open Source CFD Toolbox           |
|  \\    /   O peration     | Version:  2106                                  |
|   \\  /    A nd           | Website:  www.openfoam.com                      |
|    \\/     M anipulation  |                                                 |
\*---------------------------------------------------------------------------*/
FoamFile
{
    version     2.0;
    format      ascii;
    arch        "LSB;label=32;scalar=64";
    class       volScalarField;
    location    "0.15";
    object      p;
}
// * * * * * * * * * * * * * * * * * * * * * * * * * * * * * * * * * * * * * //

dimensions      [1 -1 -2 0 0 0 0];

internalField   nonuniform List<scalar> 
800
(
1
1
1
1
1
1
1
1
1
1
1
1
1
1
1
1
1
1
1
1
1
1
1
1
1
1
1
1
1
1
1
1
1
1
1
1
1
1
1
1
1
1
1
1
1
1
1
1
1
1
1
1
1
1
1
1
1
1
1
1
1
1
1
1
1
1
1
1
1
1
1
1
1
1
1
1
1
1
1
1
1
1
1
1
1
1
1
1
1
1
1
1
1
1
1
1
1
1
1
1
1
1
1
1
1
1
1
1
1
1
1
1
1
1
1
1
1
1
1
1
1
1
1
1
1
1
1
1
1
1
1
1
1
1
1
1
1
1
1
1
1
1
1
1
1
1
1
1
1
1
1
1
1
1
1
1
1
1
1
1
1
1
1
1
1
1
1
1
1
1
1
1
1
1
1
1
1
1
1
1
1
1
1
1
1
1
1
1
1
1
1
1
1
1
1
1
1
1
1
1
1
1
1
1
1
1
1
1
1
1
1
1
1
1
1
1
1
1
1
1
1
1
1
1
0.999991
0.999507
0.995117
0.983871
0.970471
0.95893
0.949557
0.941632
0.934541
0.927909
0.92153
0.915296
0.909154
0.90308
0.89706
0.891088
0.88516
0.879275
0.87343
0.867624
0.861856
0.856125
0.850431
0.844771
0.839146
0.833556
0.827999
0.822475
0.816985
0.811527
0.806101
0.800707
0.795345
0.790014
0.784715
0.779446
0.774209
0.769002
0.763825
0.758678
0.753562
0.748475
0.743418
0.73839
0.733392
0.728422
0.723482
0.718571
0.713688
0.708833
0.704007
0.699209
0.694439
0.689697
0.684983
0.680296
0.675637
0.671005
0.6664
0.661822
0.657271
0.652747
0.648249
0.643778
0.639333
0.634915
0.630522
0.626155
0.621814
0.617499
0.613209
0.608944
0.604705
0.600491
0.596302
0.592137
0.587998
0.583883
0.579792
0.575726
0.571684
0.567666
0.563672
0.559702
0.555756
0.551833
0.547933
0.544057
0.540205
0.536375
0.532568
0.528784
0.525023
0.521285
0.517569
0.513875
0.510204
0.506555
0.502928
0.499323
0.49574
0.492178
0.488638
0.48512
0.481623
0.478147
0.474693
0.471259
0.467847
0.464455
0.461084
0.457734
0.454405
0.451096
0.447807
0.444538
0.44129
0.438062
0.434854
0.431665
0.428497
0.425348
0.422219
0.419109
0.416018
0.412947
0.409896
0.406863
0.40385
0.400855
0.397879
0.394923
0.391985
0.389065
0.386164
0.383282
0.380418
0.377573
0.374745
0.371936
0.369145
0.366372
0.363617
0.36088
0.35816
0.355459
0.352775
0.350108
0.347459
0.344827
0.342212
0.339615
0.337035
0.334471
0.331925
0.329395
0.326882
0.324385
0.321903
0.319437
0.316987
0.314552
0.312138
0.309759
0.307451
0.305297
0.303449
0.302106
0.30138
0.301157
0.301153
0.301314
0.301387
0.30135
0.301197
0.301128
0.301117
0.301132
0.301176
0.301216
0.301255
0.301295
0.30133
0.301363
0.301403
0.301455
0.30151
0.301552
0.301578
0.301591
0.301598
0.301604
0.301615
0.301642
0.301682
0.301717
0.30174
0.301755
0.301764
0.301772
0.301783
0.301799
0.301816
0.301824
0.301825
0.30182
0.301795
0.301757
0.301722
0.301698
0.301683
0.301673
0.301666
0.301658
0.301652
0.301643
0.301633
0.301624
0.30162
0.301621
0.301628
0.301635
0.301642
0.301649
0.301652
0.301654
0.301657
0.301667
0.301683
0.301696
0.301704
0.301711
0.301715
0.301717
0.301719
0.301729
0.301747
0.301761
0.301765
0.301765
0.301761
0.301748
0.301728
0.301712
0.301705
0.3017
0.301695
0.301689
0.301683
0.301676
0.301666
0.301659
0.301657
0.301661
0.301661
0.301658
0.301655
0.301653
0.30165
0.301646
0.30165
0.301664
0.301674
0.301678
0.301683
0.301689
0.301689
0.301686
0.301687
0.3017
0.301713
0.301716
0.301719
0.301728
0.301733
0.30173
0.301724
0.301726
0.301732
0.301729
0.301714
0.301704
0.301698
0.301684
0.301671
0.301667
0.301679
0.301681
0.301673
0.301667
0.301668
0.301661
0.301649
0.301643
0.301662
0.301669
0.301661
0.301657
0.301665
0.301668
0.301662
0.301656
0.301677
0.301699
0.301691
0.301687
0.301692
0.3017
0.301694
0.301679
0.301704
0.301747
0.301778
0.301857
0.302013
0.302183
0.302683
0.302303
0.299826
0.301795
0.302572
0.30268
0.302461
0.301799
0.301408
0.301153
0.300976
0.300898
0.30104
0.301685
0.302416
0.302559
0.302498
0.302289
0.301769
0.301148
0.300889
0.300904
0.301007
0.301304
0.301904
0.302361
0.302443
0.302419
0.302173
0.301547
0.301039
0.300949
0.300933
0.301072
0.301532
0.302183
0.302416
0.30241
0.302318
0.301998
0.301417
0.30102
0.300987
0.301063
0.301275
0.301778
0.302281
0.302373
0.30236
0.302239
0.301829
0.301277
0.301078
0.301052
0.301118
0.301428
0.301995
0.302276
0.302298
0.30227
0.302071
0.301597
0.301145
0.301066
0.301094
0.301222
0.301583
0.302055
0.30223
0.302219
0.302149
0.301911
0.301445
0.301153
0.301126
0.301155
0.301321
0.301739
0.3021
0.302171
0.30218
0.302083
0.301762
0.301318
0.301182
0.301187
0.301242
0.301458
0.301876
0.302146
0.30217
0.302135
0.302006
0.301668
0.301323
0.30126
0.301271
0.301343
0.301595
0.301969
0.302122
0.302134
0.302095
0.301913
0.301538
0.301307
0.301282
0.301292
0.301396
0.301677
0.30199
0.302066
0.302051
0.301985
0.301776
0.301449
0.3013
0.301298
0.301351
0.301565
0.301679
0.301453
0.29734
0.256613
0.145299
0.101283
0.100001
0.1
0.1
0.1
0.1
0.1
0.1
0.1
0.1
0.1
0.1
0.1
0.1
0.1
0.1
0.1
0.1
0.1
0.1
0.1
0.1
0.1
0.1
0.1
0.1
0.1
0.1
0.1
0.1
0.1
0.1
0.1
0.1
0.1
0.1
0.1
0.1
0.1
0.1
0.1
0.1
0.1
0.1
0.1
0.1
0.1
0.1
0.1
0.1
0.1
0.1
0.1
0.1
0.1
0.1
0.1
0.1
0.1
0.1
0.1
0.1
0.1
0.1
0.1
0.1
0.1
0.1
0.1
0.1
0.1
0.1
0.1
0.1
0.1
0.1
0.1
0.1
0.1
0.1
0.1
0.1
0.1
0.1
0.1
0.1
0.1
0.1
0.1
0.1
0.1
0.1
0.1
0.1
0.1
0.1
0.1
0.1
0.1
0.1
0.1
0.1
0.1
0.1
0.1
0.1
0.1
0.1
0.1
0.1
0.1
0.1
0.1
0.1
0.1
0.1
0.1
0.1
0.1
0.1
0.1
0.1
0.1
0.1
0.1
0.1
0.1
0.1
0.1
0.1
0.1
0.1
0.1
0.1
0.1
)
;

boundaryField
{
    left
    {
        type            zeroGradient;
    }
    right
    {
        type            zeroGradient;
    }
    empty
    {
        type            empty;
    }
}


// ************************************************************************* //
