/*--------------------------------*- C++ -*----------------------------------*\
| =========                 |                                                 |
| \\      /  F ield         | OpenFOAM: The Open Source CFD Toolbox           |
|  \\    /   O peration     | Version:  2106                                  |
|   \\  /    A nd           | Website:  www.openfoam.com                      |
|    \\/     M anipulation  |                                                 |
\*---------------------------------------------------------------------------*/
FoamFile
{
    version     2.0;
    format      ascii;
    arch        "LSB;label=32;scalar=64";
    class       volScalarField;
    location    "0.15";
    object      rho;
}
// * * * * * * * * * * * * * * * * * * * * * * * * * * * * * * * * * * * * * //

dimensions      [1 -3 0 0 0 0 0];

internalField   nonuniform List<scalar> 
800
(
1.00435
1.00435
1.00435
1.00435
1.00435
1.00435
1.00435
1.00435
1.00435
1.00435
1.00435
1.00435
1.00435
1.00435
1.00435
1.00435
1.00435
1.00435
1.00435
1.00435
1.00435
1.00435
1.00435
1.00435
1.00435
1.00435
1.00435
1.00435
1.00435
1.00435
1.00435
1.00435
1.00435
1.00435
1.00435
1.00435
1.00435
1.00435
1.00435
1.00435
1.00435
1.00435
1.00435
1.00435
1.00435
1.00435
1.00435
1.00435
1.00435
1.00435
1.00435
1.00435
1.00435
1.00435
1.00435
1.00435
1.00435
1.00435
1.00435
1.00435
1.00435
1.00435
1.00435
1.00435
1.00435
1.00435
1.00435
1.00435
1.00435
1.00435
1.00435
1.00435
1.00435
1.00435
1.00435
1.00435
1.00435
1.00435
1.00435
1.00435
1.00435
1.00435
1.00435
1.00435
1.00435
1.00435
1.00435
1.00435
1.00435
1.00435
1.00435
1.00435
1.00435
1.00435
1.00435
1.00435
1.00435
1.00435
1.00435
1.00435
1.00435
1.00435
1.00435
1.00435
1.00435
1.00435
1.00435
1.00435
1.00435
1.00435
1.00435
1.00435
1.00435
1.00435
1.00435
1.00435
1.00435
1.00435
1.00435
1.00435
1.00435
1.00435
1.00435
1.00435
1.00435
1.00435
1.00435
1.00435
1.00435
1.00435
1.00435
1.00435
1.00435
1.00435
1.00435
1.00435
1.00435
1.00435
1.00435
1.00435
1.00435
1.00435
1.00435
1.00435
1.00435
1.00435
1.00435
1.00435
1.00435
1.00435
1.00435
1.00435
1.00435
1.00435
1.00435
1.00435
1.00435
1.00435
1.00435
1.00435
1.00435
1.00435
1.00435
1.00435
1.00435
1.00435
1.00435
1.00435
1.00435
1.00435
1.00435
1.00435
1.00435
1.00435
1.00435
1.00435
1.00435
1.00435
1.00435
1.00435
1.00435
1.00435
1.00435
1.00435
1.00435
1.00435
1.00435
1.00435
1.00435
1.00435
1.00435
1.00435
1.00435
1.00435
1.00435
1.00435
1.00435
1.00435
1.00435
1.00435
1.00435
1.00435
1.00435
1.00435
1.00435
1.00435
1.00435
1.00435
1.00435
1.00435
1.00435
1.00435
1.00435
1.00435
1.00435
1.00435
1.00435
1.00435
1.00435
1.00435
1.00435
1.00435
1.00435
1.00435
1.00434
1.004
1.00084
0.992751
0.983079
0.974717
0.967906
0.962131
0.956952
0.952098
0.94742
0.942839
0.938318
0.933837
0.929387
0.924965
0.920567
0.916193
0.91184
0.907508
0.903196
0.898903
0.894629
0.890374
0.886137
0.881917
0.877715
0.87353
0.869362
0.865211
0.861076
0.856958
0.852857
0.848771
0.844702
0.840648
0.83661
0.832589
0.828583
0.824592
0.820617
0.816658
0.812714
0.808786
0.804872
0.800974
0.797091
0.793224
0.789371
0.785533
0.78171
0.777902
0.774109
0.770331
0.766567
0.762819
0.759084
0.755364
0.751659
0.747968
0.744292
0.74063
0.736982
0.733349
0.72973
0.726125
0.722534
0.718957
0.715394
0.711846
0.708311
0.70479
0.701283
0.697789
0.69431
0.690844
0.687392
0.683953
0.680528
0.677117
0.673718
0.670334
0.666963
0.663605
0.66026
0.656929
0.653611
0.650306
0.647014
0.643735
0.640469
0.637217
0.633977
0.63075
0.627536
0.624335
0.621147
0.617971
0.614808
0.611658
0.60852
0.605395
0.602283
0.599183
0.596095
0.59302
0.589958
0.586907
0.583869
0.580844
0.57783
0.574829
0.57184
0.568864
0.565899
0.562946
0.560006
0.557077
0.554161
0.551256
0.548364
0.545483
0.542615
0.539758
0.536913
0.534079
0.531258
0.528448
0.52565
0.522864
0.52009
0.517327
0.514575
0.511836
0.509108
0.506391
0.503687
0.500993
0.498311
0.495641
0.492982
0.490335
0.487699
0.485075
0.482462
0.47986
0.47727
0.474691
0.472123
0.469567
0.467022
0.464488
0.461965
0.459453
0.456953
0.454463
0.451984
0.449516
0.447058
0.44461
0.442171
0.439744
0.437331
0.434948
0.432631
0.430465
0.428603
0.427246
0.426516
0.426287
0.426285
0.426449
0.426523
0.426486
0.426333
0.426259
0.42625
0.426266
0.426312
0.426353
0.426394
0.426434
0.42647
0.426502
0.426542
0.426595
0.426652
0.426695
0.426723
0.426737
0.426744
0.426749
0.42676
0.426788
0.426828
0.426865
0.42689
0.426906
0.426916
0.426925
0.426935
0.426951
0.426967
0.426977
0.42698
0.426976
0.426952
0.426914
0.426879
0.426853
0.426838
0.426829
0.426822
0.426816
0.426811
0.426804
0.426795
0.426785
0.426781
0.426782
0.42679
0.426799
0.426807
0.426816
0.426821
0.426822
0.426825
0.426835
0.426852
0.426865
0.426875
0.426883
0.42689
0.426893
0.426896
0.426907
0.426926
0.42694
0.426946
0.426947
0.426945
0.426933
0.426914
0.4269
0.426893
0.426889
0.426885
0.426879
0.426875
0.426869
0.42686
0.426854
0.426855
0.42686
0.426862
0.426861
0.42686
0.42686
0.426859
0.426857
0.426862
0.426878
0.42689
0.426897
0.426905
0.426912
0.426914
0.426912
0.426914
0.426929
0.426944
0.426949
0.426955
0.426968
0.426977
0.426978
0.426977
0.426983
0.426994
0.426994
0.426983
0.426978
0.426975
0.426966
0.426955
0.426957
0.426972
0.426979
0.426974
0.426972
0.426977
0.426975
0.426966
0.426968
0.42699
0.427004
0.427001
0.427004
0.427022
0.427043
0.42706
0.42707
0.427094
0.427111
0.427078
0.427003
0.426831
0.426435
0.425582
0.423884
0.42072
0.415001
0.405184
0.389542
0.366802
0.337614
0.306447
0.279746
0.263055
0.259615
0.259458
0.259502
0.259438
0.259269
0.259376
0.259676
0.260109
0.260576
0.26104
0.261654
0.262244
0.262391
0.262395
0.262276
0.261927
0.261493
0.261273
0.261201
0.261155
0.261226
0.261505
0.261712
0.261711
0.261666
0.261493
0.261131
0.260884
0.260899
0.260969
0.261135
0.261506
0.261965
0.262137
0.262146
0.262083
0.261841
0.261416
0.261103
0.261018
0.26099
0.261061
0.261345
0.261652
0.261716
0.261724
0.261696
0.261505
0.261225
0.261156
0.261177
0.261249
0.261469
0.261817
0.261965
0.261948
0.261887
0.261709
0.261357
0.261037
0.260962
0.260955
0.261023
0.26126
0.26158
0.26172
0.26175
0.261757
0.261657
0.261397
0.261238
0.261233
0.261256
0.261353
0.261583
0.261765
0.26177
0.26174
0.261645
0.261412
0.261125
0.261038
0.261043
0.26109
0.26125
0.261539
0.261738
0.261779
0.261791
0.26174
0.261544
0.261333
0.261291
0.261288
0.261306
0.261425
0.261622
0.261687
0.261676
0.261636
0.261511
0.261283
0.261153
0.261151
0.261173
0.261262
0.261463
0.261678
0.261742
0.261751
0.261727
0.261601
0.261387
0.261277
0.261254
0.261252
0.261355
0.261412
0.261257
0.258694
0.232971
0.15668
0.124437
0.123439
0.123438
0.123438
0.123438
0.123438
0.123438
0.123438
0.123438
0.123438
0.123438
0.123438
0.123438
0.123438
0.123438
0.123438
0.123438
0.123438
0.123438
0.123438
0.123438
0.123438
0.123438
0.123438
0.123438
0.123438
0.123438
0.123438
0.123438
0.123438
0.123438
0.123438
0.123438
0.123438
0.123438
0.123438
0.123438
0.123438
0.123438
0.123438
0.123438
0.123438
0.123438
0.123438
0.123438
0.123438
0.123438
0.123438
0.123438
0.123438
0.123438
0.123438
0.123438
0.123438
0.123438
0.123438
0.123438
0.123438
0.123438
0.123438
0.123438
0.123438
0.123438
0.123438
0.123438
0.123438
0.123438
0.123438
0.123438
0.123438
0.123438
0.123438
0.123438
0.123438
0.123438
0.123438
0.123438
0.123438
0.123438
0.123438
0.123438
0.123438
0.123438
0.123438
0.123438
0.123438
0.123438
0.123438
0.123438
0.123438
0.123438
0.123438
0.123438
0.123438
0.123438
0.123438
0.123438
0.123438
0.123438
0.123438
0.123438
0.123438
0.123438
0.123438
0.123438
0.123438
0.123438
0.123438
0.123438
0.123438
0.123438
0.123438
0.123438
0.123438
0.123438
0.123438
0.123438
0.123438
0.123438
0.123438
0.123438
0.123438
0.123438
0.123438
0.123438
0.123438
0.123438
0.123438
0.123438
0.123438
0.123438
0.123438
0.123438
0.123438
0.123438
)
;

boundaryField
{
    left
    {
        type            calculated;
        value           uniform 0.123438;
    }
    right
    {
        type            calculated;
        value           uniform 1.00435;
    }
    empty
    {
        type            empty;
    }
}


// ************************************************************************* //
