/*--------------------------------*- C++ -*----------------------------------*\
| =========                 |                                                 |
| \\      /  F ield         | OpenFOAM: The Open Source CFD Toolbox           |
|  \\    /   O peration     | Version:  2106                                  |
|   \\  /    A nd           | Website:  www.openfoam.com                      |
|    \\/     M anipulation  |                                                 |
\*---------------------------------------------------------------------------*/
FoamFile
{
    version     2.0;
    format      ascii;
    arch        "LSB;label=32;scalar=64";
    class       volScalarField;
    location    "0.15";
    object      T;
}
// * * * * * * * * * * * * * * * * * * * * * * * * * * * * * * * * * * * * * //

dimensions      [0 0 0 1 0 0 0];

internalField   nonuniform List<scalar> 
800
(
0.003468
0.003468
0.003468
0.003468
0.003468
0.003468
0.003468
0.003468
0.003468
0.003468
0.003468
0.003468
0.003468
0.003468
0.003468
0.003468
0.003468
0.003468
0.003468
0.003468
0.003468
0.003468
0.003468
0.003468
0.003468
0.003468
0.003468
0.003468
0.003468
0.003468
0.003468
0.003468
0.003468
0.003468
0.003468
0.003468
0.003468
0.003468
0.003468
0.003468
0.003468
0.003468
0.003468
0.003468
0.003468
0.003468
0.003468
0.003468
0.003468
0.003468
0.003468
0.003468
0.003468
0.003468
0.003468
0.003468
0.003468
0.003468
0.003468
0.003468
0.003468
0.003468
0.003468
0.003468
0.003468
0.003468
0.003468
0.003468
0.003468
0.003468
0.003468
0.003468
0.003468
0.003468
0.003468
0.003468
0.003468
0.003468
0.003468
0.003468
0.003468
0.003468
0.003468
0.003468
0.003468
0.003468
0.003468
0.003468
0.003468
0.003468
0.003468
0.003468
0.003468
0.003468
0.003468
0.003468
0.003468
0.003468
0.003468
0.003468
0.003468
0.003468
0.003468
0.003468
0.003468
0.003468
0.003468
0.003468
0.003468
0.003468
0.003468
0.003468
0.003468
0.003468
0.003468
0.003468
0.003468
0.003468
0.003468
0.003468
0.003468
0.003468
0.003468
0.003468
0.003468
0.003468
0.003468
0.003468
0.003468
0.003468
0.003468
0.003468
0.003468
0.003468
0.003468
0.003468
0.003468
0.003468
0.003468
0.003468
0.003468
0.003468
0.003468
0.003468
0.003468
0.003468
0.003468
0.003468
0.003468
0.003468
0.003468
0.003468
0.003468
0.003468
0.003468
0.003468
0.003468
0.003468
0.003468
0.003468
0.003468
0.003468
0.003468
0.003468
0.003468
0.003468
0.003468
0.003468
0.003468
0.003468
0.003468
0.003468
0.003468
0.003468
0.003468
0.003468
0.003468
0.003468
0.003468
0.003468
0.003468
0.003468
0.003468
0.003468
0.003468
0.003468
0.003468
0.003468
0.003468
0.003468
0.003468
0.003468
0.003468
0.003468
0.003468
0.003468
0.003468
0.003468
0.003468
0.003468
0.003468
0.003468
0.003468
0.003468
0.003468
0.003468
0.003468
0.003468
0.003468
0.003468
0.003468
0.003468
0.003468
0.003468
0.003468
0.003468
0.003468
0.003468
0.003468
0.003468
0.003468
0.003468
0.003468
0.003468
0.00346799
0.00346751
0.00346316
0.00345193
0.00343841
0.00342667
0.00341705
0.00340887
0.00340151
0.00339459
0.0033879
0.00338133
0.00337483
0.00336837
0.00336193
0.00335551
0.00334912
0.00334273
0.00333637
0.00333001
0.00332366
0.00331733
0.003311
0.00330469
0.00329838
0.00329208
0.00328579
0.00327951
0.00327323
0.00326697
0.00326071
0.00325445
0.00324821
0.00324197
0.00323573
0.00322951
0.00322329
0.00321707
0.00321086
0.00320466
0.00319847
0.00319228
0.0031861
0.00317992
0.00317375
0.00316759
0.00316143
0.00315528
0.00314913
0.00314299
0.00313686
0.00313073
0.00312461
0.0031185
0.00311239
0.00310628
0.00310018
0.00309409
0.00308801
0.00308193
0.00307585
0.00306978
0.00306372
0.00305766
0.00305161
0.00304557
0.00303953
0.00303349
0.00302746
0.00302144
0.00301543
0.00300941
0.00300341
0.00299741
0.00299142
0.00298543
0.00297945
0.00297347
0.0029675
0.00296153
0.00295557
0.00294962
0.00294367
0.00293773
0.00293179
0.00292586
0.00291993
0.00291401
0.0029081
0.00290219
0.00289628
0.00289038
0.00288449
0.0028786
0.00287272
0.00286684
0.00286097
0.00285511
0.00284925
0.00284339
0.00283754
0.0028317
0.00282586
0.00282003
0.0028142
0.00280838
0.00280257
0.00279675
0.00279095
0.00278515
0.00277935
0.00277357
0.00276778
0.00276201
0.00275623
0.00275047
0.0027447
0.00273895
0.0027332
0.00272745
0.00272171
0.00271598
0.00271025
0.00270453
0.00269881
0.0026931
0.0026874
0.0026817
0.002676
0.00267032
0.00266463
0.00265896
0.00265329
0.00264762
0.00264196
0.00263631
0.00263066
0.00262502
0.00261938
0.00261376
0.00260813
0.00260252
0.00259691
0.0025913
0.0025857
0.00258011
0.00257453
0.00256895
0.00256337
0.00255781
0.00255225
0.00254669
0.00254115
0.0025356
0.00253007
0.00252454
0.00251902
0.0025135
0.00250799
0.00250248
0.00249698
0.00249148
0.002486
0.00248056
0.00247527
0.0024703
0.00246601
0.00246289
0.00246118
0.00246068
0.00246065
0.00246103
0.0024612
0.00246111
0.00246074
0.0024606
0.00246056
0.0024606
0.00246069
0.00246078
0.00246087
0.00246096
0.00246104
0.00246112
0.00246122
0.00246134
0.00246146
0.00246155
0.0024616
0.00246163
0.00246165
0.00246166
0.00246169
0.00246175
0.00246184
0.00246192
0.00246196
0.00246199
0.00246201
0.00246202
0.00246205
0.00246209
0.00246214
0.00246214
0.00246214
0.00246212
0.00246205
0.00246196
0.00246188
0.00246183
0.00246179
0.00246177
0.00246175
0.00246172
0.00246169
0.00246166
0.00246164
0.00246161
0.00246161
0.00246161
0.00246162
0.00246163
0.00246164
0.00246164
0.00246164
0.00246165
0.00246165
0.00246168
0.00246172
0.00246174
0.00246175
0.00246176
0.00246176
0.00246175
0.00246175
0.00246177
0.00246181
0.00246184
0.00246184
0.00246183
0.00246182
0.00246178
0.00246172
0.00246168
0.00246165
0.00246164
0.00246162
0.0024616
0.00246158
0.00246156
0.00246153
0.00246151
0.00246149
0.00246148
0.00246147
0.00246145
0.00246143
0.00246142
0.0024614
0.00246138
0.00246139
0.00246141
0.00246142
0.00246141
0.00246141
0.00246141
0.00246141
0.00246139
0.00246138
0.00246141
0.00246143
0.00246142
0.00246141
0.00246141
0.0024614
0.00246137
0.00246133
0.00246131
0.0024613
0.00246127
0.00246121
0.00246116
0.00246113
0.00246107
0.00246102
0.00246098
0.00246099
0.00246097
0.00246093
0.00246089
0.00246087
0.00246083
0.00246078
0.00246072
0.00246074
0.00246072
0.00246068
0.00246063
0.00246059
0.00246049
0.00246034
0.00246023
0.00246026
0.00246035
0.00246047
0.00246087
0.00246191
0.00246425
0.00246914
0.00247891
0.00249777
0.00253255
0.00259417
0.00269905
0.00286787
0.00311755
0.0034403
0.00376394
0.00396997
0.00404899
0.00406185
0.00406263
0.00406068
0.00405444
0.00404753
0.00403942
0.00403033
0.00402206
0.0040168
0.00401596
0.00401664
0.00401629
0.00401542
0.00401447
0.00401291
0.0040113
0.00401121
0.00401251
0.00401461
0.00401747
0.00402117
0.00402408
0.00402518
0.00402556
0.00402495
0.00402217
0.00401919
0.00401776
0.00401648
0.00401577
0.00401622
0.00401783
0.00401828
0.00401807
0.00401781
0.00401726
0.00401605
0.00401558
0.00401643
0.00401789
0.00401962
0.00402196
0.00402392
0.00402418
0.00402387
0.0040227
0.00402017
0.00401712
0.00401554
0.00401485
0.00401463
0.00401537
0.00401759
0.00401905
0.00401961
0.00402018
0.00402027
0.00401936
0.00401826
0.00401836
0.00401884
0.00401949
0.00402066
0.00402203
0.00402222
0.00402161
0.00402055
0.00401894
0.00401671
0.00401526
0.00401499
0.00401502
0.00401574
0.00401777
0.00401979
0.00402065
0.00402123
0.0040214
0.00402071
0.0040192
0.00401873
0.00401872
0.00401874
0.00401916
0.00402027
0.00402081
0.00402049
0.00401985
0.00401892
0.00401743
0.00401608
0.00401589
0.00401607
0.00401676
0.00401829
0.00402025
0.00402128
0.00402161
0.00402169
0.0040212
0.00401972
0.00401864
0.00401833
0.00401812
0.00401814
0.00401881
0.00401966
0.00401968
0.00401934
0.00401883
0.00401801
0.00401693
0.00401663
0.00401696
0.0040177
0.00401897
0.0040196
0.00401897
0.00400342
0.00383654
0.00323007
0.00283499
0.00282174
0.00282173
0.00282173
0.00282173
0.00282173
0.00282173
0.00282173
0.00282173
0.00282173
0.00282173
0.00282173
0.00282173
0.00282173
0.00282173
0.00282173
0.00282173
0.00282173
0.00282173
0.00282173
0.00282173
0.00282173
0.00282173
0.00282173
0.00282173
0.00282173
0.00282173
0.00282173
0.00282173
0.00282173
0.00282173
0.00282173
0.00282173
0.00282173
0.00282173
0.00282173
0.00282173
0.00282173
0.00282173
0.00282173
0.00282173
0.00282173
0.00282173
0.00282173
0.00282173
0.00282173
0.00282173
0.00282173
0.00282173
0.00282173
0.00282173
0.00282173
0.00282173
0.00282173
0.00282173
0.00282173
0.00282173
0.00282173
0.00282173
0.00282173
0.00282173
0.00282173
0.00282173
0.00282173
0.00282173
0.00282173
0.00282173
0.00282173
0.00282173
0.00282173
0.00282173
0.00282173
0.00282173
0.00282173
0.00282173
0.00282173
0.00282173
0.00282173
0.00282173
0.00282173
0.00282173
0.00282173
0.00282173
0.00282173
0.00282173
0.00282173
0.00282173
0.00282173
0.00282173
0.00282173
0.00282173
0.00282173
0.00282173
0.00282173
0.00282173
0.00282173
0.00282173
0.00282173
0.00282173
0.00282173
0.00282173
0.00282173
0.00282173
0.00282173
0.00282173
0.00282173
0.00282173
0.00282173
0.00282173
0.00282173
0.00282173
0.00282173
0.00282173
0.00282173
0.00282173
0.00282173
0.00282173
0.00282173
0.00282173
0.00282173
0.00282173
0.00282173
0.00282173
0.00282173
0.00282173
0.00282173
0.00282173
0.00282173
0.00282173
0.00282173
0.00282173
0.00282173
0.00282173
0.00282173
0.00282173
)
;

boundaryField
{
    left
    {
        type            zeroGradient;
    }
    right
    {
        type            zeroGradient;
    }
    empty
    {
        type            empty;
    }
}


// ************************************************************************* //
