/*--------------------------------*- C++ -*----------------------------------*\
| =========                 |                                                 |
| \\      /  F ield         | OpenFOAM: The Open Source CFD Toolbox           |
|  \\    /   O peration     | Version:  2106                                  |
|   \\  /    A nd           | Website:  www.openfoam.com                      |
|    \\/     M anipulation  |                                                 |
\*---------------------------------------------------------------------------*/
FoamFile
{
    version     2.0;
    format      ascii;
    arch        "LSB;label=32;scalar=64";
    class       volVectorField;
    location    "0.15";
    object      U;
}
// * * * * * * * * * * * * * * * * * * * * * * * * * * * * * * * * * * * * * //

dimensions      [0 1 -1 0 0 0 0];

internalField   nonuniform List<vector> 
800
(
(3.97301e-11 0 0)
(1.03122e-10 0 0)
(1.3334e-10 0 0)
(1.09709e-10 0 0)
(1.57193e-11 0 0)
(-6.63831e-11 0 0)
(-9.18103e-11 0 0)
(-9.09241e-11 0 0)
(-1.65104e-10 0 0)
(-2.0805e-10 0 0)
(-2.12948e-10 0 0)
(-1.92827e-10 0 0)
(-2.61131e-10 0 0)
(-3.60903e-10 0 0)
(-4.06829e-10 0 0)
(-3.57344e-10 0 0)
(-3.45255e-10 0 0)
(-3.71452e-10 0 0)
(-3.04416e-10 0 0)
(-2.50086e-10 0 0)
(-1.22886e-10 0 0)
(-2.49733e-11 0 0)
(3.2075e-11 0 0)
(9.25104e-11 0 0)
(2.00141e-10 0 0)
(2.62526e-10 0 0)
(2.86579e-10 0 0)
(2.59542e-10 0 0)
(2.35502e-10 0 0)
(1.99811e-10 0 0)
(2.23342e-10 0 0)
(1.95609e-10 0 0)
(8.87328e-11 0 0)
(-7.10436e-11 0 0)
(-2.55002e-10 0 0)
(-3.66055e-10 0 0)
(-4.01239e-10 0 0)
(-4.03282e-10 0 0)
(-3.66054e-10 0 0)
(-2.85206e-10 0 0)
(-2.14732e-10 0 0)
(-1.65724e-10 0 0)
(-1.39199e-10 0 0)
(-1.69461e-10 0 0)
(-2.5519e-10 0 0)
(-1.94419e-10 0 0)
(-9.29724e-11 0 0)
(6.64397e-11 0 0)
(2.14709e-10 0 0)
(1.6401e-10 0 0)
(1.42801e-10 0 0)
(7.59416e-11 0 0)
(6.35159e-11 0 0)
(1.47932e-10 0 0)
(1.31579e-10 0 0)
(9.52052e-11 0 0)
(8.07049e-12 0 0)
(-8.98908e-11 0 0)
(-1.68456e-10 0 0)
(-2.3006e-10 0 0)
(-2.76321e-10 0 0)
(-3.45171e-10 0 0)
(-3.93696e-10 0 0)
(-3.38623e-10 0 0)
(-3.35379e-10 0 0)
(-3.35871e-10 0 0)
(-2.74496e-10 0 0)
(-2.72628e-10 0 0)
(-3.14885e-10 0 0)
(-2.85688e-10 0 0)
(-2.84579e-10 0 0)
(-3.03697e-10 0 0)
(-2.11643e-10 0 0)
(-1.02869e-10 0 0)
(-4.48796e-11 0 0)
(-3.53816e-12 0 0)
(1.08263e-11 0 0)
(-5.07496e-11 0 0)
(-9.74112e-11 0 0)
(-9.12374e-11 0 0)
(-1.1059e-10 0 0)
(-2.09682e-10 0 0)
(-2.52885e-10 0 0)
(-2.10757e-10 0 0)
(-1.23933e-10 0 0)
(-7.87205e-11 0 0)
(-5.36961e-11 0 0)
(-4.44594e-12 0 0)
(-7.64502e-12 0 0)
(1.16354e-11 0 0)
(4.18893e-11 0 0)
(4.89401e-11 0 0)
(2.43658e-11 0 0)
(-1.29686e-10 0 0)
(-2.66764e-10 0 0)
(-3.58225e-10 0 0)
(-3.46935e-10 0 0)
(-2.44494e-10 0 0)
(-1.56552e-10 0 0)
(-6.73534e-11 0 0)
(3.61378e-12 0 0)
(1.60152e-11 0 0)
(-5.59655e-12 0 0)
(-3.04025e-11 0 0)
(3.62759e-11 0 0)
(7.89527e-11 0 0)
(8.88815e-11 0 0)
(5.21308e-11 0 0)
(-4.13348e-11 0 0)
(-8.30853e-11 0 0)
(-9.14002e-11 0 0)
(-4.42496e-11 0 0)
(-2.00843e-11 0 0)
(-6.72422e-11 0 0)
(-1.08052e-10 0 0)
(-1.08778e-10 0 0)
(-1.32503e-10 0 0)
(-1.52745e-10 0 0)
(-1.54034e-10 0 0)
(-1.63772e-10 0 0)
(-1.40957e-10 0 0)
(-1.20409e-10 0 0)
(-7.87457e-11 0 0)
(-4.1238e-11 0 0)
(1.07485e-11 0 0)
(3.81647e-11 0 0)
(5.63492e-11 0 0)
(8.43451e-11 0 0)
(9.01244e-11 0 0)
(4.80351e-11 0 0)
(3.53136e-11 0 0)
(6.95351e-11 0 0)
(9.68854e-11 0 0)
(1.2029e-10 0 0)
(9.72937e-11 0 0)
(2.05193e-11 0 0)
(-1.29929e-10 0 0)
(-2.24148e-10 0 0)
(-2.42785e-10 0 0)
(-2.04343e-10 0 0)
(-1.17923e-10 0 0)
(-1.35117e-10 0 0)
(-1.8072e-10 0 0)
(-1.44934e-10 0 0)
(-1.02429e-10 0 0)
(-5.64376e-11 0 0)
(-8.00591e-11 0 0)
(-9.09826e-11 0 0)
(-7.09154e-11 0 0)
(-3.6509e-11 0 0)
(1.4843e-11 0 0)
(7.37387e-11 0 0)
(7.82264e-11 0 0)
(5.14681e-11 0 0)
(4.80402e-11 0 0)
(7.65606e-11 0 0)
(9.22491e-11 0 0)
(1.0796e-10 0 0)
(7.99206e-11 0 0)
(2.96812e-11 0 0)
(7.55687e-13 0 0)
(-5.68871e-11 0 0)
(-7.4886e-11 0 0)
(-2.26209e-11 0 0)
(1.12797e-11 0 0)
(1.48749e-11 0 0)
(4.10453e-13 0 0)
(-2.21433e-11 0 0)
(-1.13766e-10 0 0)
(-1.44582e-10 0 0)
(-9.55195e-11 0 0)
(-1.53355e-11 0 0)
(2.35841e-11 0 0)
(5.75175e-11 0 0)
(9.32169e-11 0 0)
(5.28914e-11 0 0)
(2.32033e-11 0 0)
(3.33363e-11 0 0)
(4.58106e-11 0 0)
(9.84479e-11 0 0)
(1.5743e-10 0 0)
(2.15289e-10 0 0)
(1.55916e-10 0 0)
(1.15291e-10 0 0)
(1.32485e-10 0 0)
(1.68897e-10 0 0)
(1.10496e-10 0 0)
(-3.74022e-11 0 0)
(-9.89779e-11 0 0)
(-9.84612e-11 0 0)
(-1.11547e-10 0 0)
(-4.58449e-11 0 0)
(6.56979e-11 0 0)
(1.3472e-10 0 0)
(1.22001e-10 0 0)
(1.01076e-10 0 0)
(1.13125e-10 0 0)
(1.29724e-10 0 0)
(1.71207e-10 0 0)
(2.48571e-10 0 0)
(2.82336e-10 0 0)
(2.6804e-10 0 0)
(2.88865e-10 0 0)
(2.86e-10 0 0)
(3.1761e-10 0 0)
(3.28228e-10 0 0)
(2.27904e-10 0 0)
(8.1532e-11 0 0)
(-4.07384e-11 0 0)
(-1.35736e-10 0 0)
(-1.95157e-10 0 0)
(-2.00481e-10 0 0)
(-1.90816e-10 0 0)
(-2.50225e-10 0 0)
(-3.51027e-10 0 0)
(-5.42292e-10 0 0)
(-7.38634e-10 0 0)
(-8.9456e-10 0 0)
(-9.99872e-10 0 0)
(-1.17154e-09 0 0)
(-1.33171e-09 0 0)
(-1.52273e-09 0 0)
(-1.5294e-09 0 0)
(1.18665e-08 0 0)
(7.54387e-06 0 0)
(0.000415401 0 0)
(0.00412525 0 0)
(0.0136901 0 0)
(0.0252127 0 0)
(0.0352524 0 0)
(0.0434823 0 0)
(0.0504955 0 0)
(0.0568128 0 0)
(0.0627579 0 0)
(0.0685109 0 0)
(0.0741658 0 0)
(0.0797693 0 0)
(0.0853437 0 0)
(0.0908998 0 0)
(0.0964432 0 0)
(0.101977 0 0)
(0.107503 0 0)
(0.113022 0 0)
(0.118536 0 0)
(0.124045 0 0)
(0.12955 0 0)
(0.135052 0 0)
(0.140551 0 0)
(0.146048 0 0)
(0.151543 0 0)
(0.157036 0 0)
(0.162528 0 0)
(0.168018 0 0)
(0.173507 0 0)
(0.178995 0 0)
(0.184482 0 0)
(0.189968 0 0)
(0.195454 0 0)
(0.200939 0 0)
(0.206424 0 0)
(0.211908 0 0)
(0.217392 0 0)
(0.222875 0 0)
(0.228358 0 0)
(0.233841 0 0)
(0.239324 0 0)
(0.244806 0 0)
(0.250289 0 0)
(0.255771 0 0)
(0.261253 0 0)
(0.266735 0 0)
(0.272217 0 0)
(0.277699 0 0)
(0.283181 0 0)
(0.288663 0 0)
(0.294145 0 0)
(0.299626 0 0)
(0.305108 0 0)
(0.31059 0 0)
(0.316073 0 0)
(0.321555 0 0)
(0.327037 0 0)
(0.332519 0 0)
(0.338002 0 0)
(0.343485 0 0)
(0.348967 0 0)
(0.35445 0 0)
(0.359933 0 0)
(0.365417 0 0)
(0.3709 0 0)
(0.376384 0 0)
(0.381868 0 0)
(0.387352 0 0)
(0.392836 0 0)
(0.398321 0 0)
(0.403806 0 0)
(0.409291 0 0)
(0.414776 0 0)
(0.420262 0 0)
(0.425748 0 0)
(0.431234 0 0)
(0.436721 0 0)
(0.442207 0 0)
(0.447695 0 0)
(0.453182 0 0)
(0.45867 0 0)
(0.464159 0 0)
(0.469647 0 0)
(0.475136 0 0)
(0.480626 0 0)
(0.486116 0 0)
(0.491606 0 0)
(0.497097 0 0)
(0.502588 0 0)
(0.508079 0 0)
(0.513571 0 0)
(0.519064 0 0)
(0.524557 0 0)
(0.53005 0 0)
(0.535544 0 0)
(0.541038 0 0)
(0.546533 0 0)
(0.552029 0 0)
(0.557525 0 0)
(0.563021 0 0)
(0.568518 0 0)
(0.574015 0 0)
(0.579513 0 0)
(0.585012 0 0)
(0.590511 0 0)
(0.59601 0 0)
(0.60151 0 0)
(0.607011 0 0)
(0.612512 0 0)
(0.618014 0 0)
(0.623516 0 0)
(0.629019 0 0)
(0.634522 0 0)
(0.640026 0 0)
(0.64553 0 0)
(0.651035 0 0)
(0.65654 0 0)
(0.662046 0 0)
(0.667552 0 0)
(0.673059 0 0)
(0.678566 0 0)
(0.684073 0 0)
(0.689581 0 0)
(0.69509 0 0)
(0.700598 0 0)
(0.706107 0 0)
(0.711617 0 0)
(0.717127 0 0)
(0.722637 0 0)
(0.728147 0 0)
(0.733658 0 0)
(0.739169 0 0)
(0.74468 0 0)
(0.750191 0 0)
(0.755702 0 0)
(0.761213 0 0)
(0.766724 0 0)
(0.772236 0 0)
(0.777747 0 0)
(0.783258 0 0)
(0.788769 0 0)
(0.79428 0 0)
(0.799791 0 0)
(0.805302 0 0)
(0.810812 0 0)
(0.816322 0 0)
(0.821832 0 0)
(0.827342 0 0)
(0.832851 0 0)
(0.83836 0 0)
(0.843869 0 0)
(0.849377 0 0)
(0.854885 0 0)
(0.860392 0 0)
(0.8659 0 0)
(0.871408 0 0)
(0.876916 0 0)
(0.882425 0 0)
(0.887937 0 0)
(0.89345 0 0)
(0.898964 0 0)
(0.904467 0 0)
(0.909927 0 0)
(0.915258 0 0)
(0.920265 0 0)
(0.924584 0 0)
(0.927741 0 0)
(0.929448 0 0)
(0.929978 0 0)
(0.929986 0 0)
(0.929605 0 0)
(0.929433 0 0)
(0.929521 0 0)
(0.929879 0 0)
(0.930047 0 0)
(0.930071 0 0)
(0.930034 0 0)
(0.92993 0 0)
(0.929836 0 0)
(0.929744 0 0)
(0.92965 0 0)
(0.929568 0 0)
(0.929491 0 0)
(0.929397 0 0)
(0.929271 0 0)
(0.929141 0 0)
(0.929042 0 0)
(0.928981 0 0)
(0.928948 0 0)
(0.928931 0 0)
(0.928919 0 0)
(0.928894 0 0)
(0.928833 0 0)
(0.928743 0 0)
(0.928662 0 0)
(0.928605 0 0)
(0.928567 0 0)
(0.92854 0 0)
(0.92852 0 0)
(0.928495 0 0)
(0.928457 0 0)
(0.928423 0 0)
(0.928404 0 0)
(0.9284 0 0)
(0.928413 0 0)
(0.928471 0 0)
(0.928558 0 0)
(0.92864 0 0)
(0.928699 0 0)
(0.928734 0 0)
(0.928757 0 0)
(0.928775 0 0)
(0.928792 0 0)
(0.928809 0 0)
(0.928829 0 0)
(0.928855 0 0)
(0.928874 0 0)
(0.928882 0 0)
(0.928879 0 0)
(0.928862 0 0)
(0.928844 0 0)
(0.928827 0 0)
(0.928811 0 0)
(0.928801 0 0)
(0.928798 0 0)
(0.928792 0 0)
(0.92877 0 0)
(0.928735 0 0)
(0.928707 0 0)
(0.928688 0 0)
(0.928672 0 0)
(0.928659 0 0)
(0.928652 0 0)
(0.928645 0 0)
(0.928621 0 0)
(0.928577 0 0)
(0.928549 0 0)
(0.928538 0 0)
(0.928539 0 0)
(0.928548 0 0)
(0.928578 0 0)
(0.928626 0 0)
(0.928661 0 0)
(0.928678 0 0)
(0.928689 0 0)
(0.928702 0 0)
(0.928718 0 0)
(0.928732 0 0)
(0.928748 0 0)
(0.928772 0 0)
(0.928789 0 0)
(0.928792 0 0)
(0.928784 0 0)
(0.928783 0 0)
(0.928789 0 0)
(0.928795 0 0)
(0.928797 0 0)
(0.928803 0 0)
(0.928809 0 0)
(0.928803 0 0)
(0.928771 0 0)
(0.92875 0 0)
(0.928744 0 0)
(0.928737 0 0)
(0.928723 0 0)
(0.92872 0 0)
(0.928725 0 0)
(0.92872 0 0)
(0.928686 0 0)
(0.928655 0 0)
(0.928645 0 0)
(0.928637 0 0)
(0.928618 0 0)
(0.92861 0 0)
(0.928619 0 0)
(0.928632 0 0)
(0.928626 0 0)
(0.928608 0 0)
(0.928616 0 0)
(0.928651 0 0)
(0.928675 0 0)
(0.928693 0 0)
(0.928725 0 0)
(0.928759 0 0)
(0.928763 0 0)
(0.928734 0 0)
(0.928727 0 0)
(0.928748 0 0)
(0.928764 0 0)
(0.928764 0 0)
(0.92878 0 0)
(0.92881 0 0)
(0.928815 0 0)
(0.92877 0 0)
(0.928747 0 0)
(0.928765 0 0)
(0.928775 0 0)
(0.928761 0 0)
(0.928758 0 0)
(0.928789 0 0)
(0.928801 0 0)
(0.928744 0 0)
(0.928686 0 0)
(0.928701 0 0)
(0.928707 0 0)
(0.928691 0 0)
(0.928674 0 0)
(0.928693 0 0)
(0.928738 0 0)
(0.928701 0 0)
(0.928653 0 0)
(0.92872 0 0)
(0.928891 0 0)
(0.92918 0 0)
(0.929522 0 0)
(0.930992 0 0)
(0.930241 0 0)
(0.923223 0 0)
(0.928829 0 0)
(0.931272 0 0)
(0.931613 0 0)
(0.93099 0 0)
(0.92914 0 0)
(0.927885 0 0)
(0.927138 0 0)
(0.926622 0 0)
(0.926375 0 0)
(0.926792 0 0)
(0.928779 0 0)
(0.930972 0 0)
(0.931431 0 0)
(0.931246 0 0)
(0.930628 0 0)
(0.929073 0 0)
(0.927224 0 0)
(0.926462 0 0)
(0.926468 0 0)
(0.926808 0 0)
(0.927697 0 0)
(0.929503 0 0)
(0.930859 0 0)
(0.931126 0 0)
(0.931031 0 0)
(0.93028 0 0)
(0.92838 0 0)
(0.926862 0 0)
(0.926549 0 0)
(0.926478 0 0)
(0.926897 0 0)
(0.92827 0 0)
(0.930211 0 0)
(0.930907 0 0)
(0.930873 0 0)
(0.930588 0 0)
(0.929614 0 0)
(0.927857 0 0)
(0.926671 0 0)
(0.926522 0 0)
(0.926758 0 0)
(0.92737 0 0)
(0.928864 0 0)
(0.930358 0 0)
(0.930626 0 0)
(0.930577 0 0)
(0.930213 0 0)
(0.928987 0 0)
(0.927344 0 0)
(0.926764 0 0)
(0.926699 0 0)
(0.926936 0 0)
(0.927887 0 0)
(0.929615 0 0)
(0.930466 0 0)
(0.930567 0 0)
(0.930497 0 0)
(0.929904 0 0)
(0.928488 0 0)
(0.927146 0 0)
(0.926899 0 0)
(0.927003 0 0)
(0.927389 0 0)
(0.928482 0 0)
(0.929903 0 0)
(0.93043 0 0)
(0.930421 0 0)
(0.930202 0 0)
(0.929495 0 0)
(0.928091 0 0)
(0.927215 0 0)
(0.927132 0 0)
(0.927218 0 0)
(0.927714 0 0)
(0.928968 0 0)
(0.930033 0 0)
(0.930253 0 0)
(0.93027 0 0)
(0.929958 0 0)
(0.928985 0 0)
(0.927635 0 0)
(0.927216 0 0)
(0.927217 0 0)
(0.927373 0 0)
(0.928015 0 0)
(0.929264 0 0)
(0.930056 0 0)
(0.930136 0 0)
(0.93001 0 0)
(0.929614 0 0)
(0.928587 0 0)
(0.927534 0 0)
(0.92733 0 0)
(0.927348 0 0)
(0.927558 0 0)
(0.92831 0 0)
(0.929436 0 0)
(0.929898 0 0)
(0.929951 0 0)
(0.929843 0 0)
(0.929318 0 0)
(0.928209 0 0)
(0.927538 0 0)
(0.927472 0 0)
(0.927519 0 0)
(0.927845 0 0)
(0.928704 0 0)
(0.929649 0 0)
(0.929892 0 0)
(0.92985 0 0)
(0.929659 0 0)
(0.929041 0 0)
(0.928061 0 0)
(0.927623 0 0)
(0.927609 0 0)
(0.927782 0 0)
(0.928426 0 0)
(0.928774 0 0)
(0.9281 0 0)
(0.915934 0 0)
(0.788427 0 0)
(0.300479 0 0)
(0.00971154 0 0)
(9.2753e-06 0 0)
(1.67552e-10 0 0)
(1.76791e-11 0 0)
(2.15636e-11 0 0)
(8.45826e-11 0 0)
(7.44005e-11 0 0)
(-5.06328e-11 0 0)
(-1.33212e-10 0 0)
(-8.05996e-11 0 0)
(4.55991e-11 0 0)
(1.28344e-10 0 0)
(1.79688e-10 0 0)
(2.02821e-10 0 0)
(1.43182e-10 0 0)
(1.01582e-10 0 0)
(-3.68742e-11 0 0)
(-9.42146e-11 0 0)
(-1.40999e-10 0 0)
(-1.89599e-10 0 0)
(-1.9069e-10 0 0)
(-1.80031e-10 0 0)
(-1.69756e-10 0 0)
(-9.6197e-11 0 0)
(2.84235e-11 0 0)
(1.33603e-10 0 0)
(1.32932e-10 0 0)
(9.01321e-11 0 0)
(2.60502e-11 0 0)
(1.09006e-10 0 0)
(2.17288e-10 0 0)
(2.61089e-10 0 0)
(2.93247e-10 0 0)
(3.17544e-10 0 0)
(3.38252e-10 0 0)
(3.10498e-10 0 0)
(3.06615e-10 0 0)
(2.43248e-10 0 0)
(1.36339e-10 0 0)
(5.28678e-12 0 0)
(-1.12153e-10 0 0)
(-1.32669e-10 0 0)
(-1.57193e-10 0 0)
(-1.45226e-10 0 0)
(-1.80713e-10 0 0)
(-1.87897e-10 0 0)
(-1.58573e-10 0 0)
(-1.43481e-10 0 0)
(-1.77182e-10 0 0)
(-1.74331e-10 0 0)
(-1.75022e-10 0 0)
(-2.12886e-10 0 0)
(-1.60794e-10 0 0)
(-1.1879e-10 0 0)
(-1.61872e-10 0 0)
(-2.09999e-10 0 0)
(-2.9109e-10 0 0)
(-3.00209e-10 0 0)
(-2.51729e-10 0 0)
(-2.00119e-10 0 0)
(-1.42791e-10 0 0)
(-3.24602e-11 0 0)
(2.67965e-10 0 0)
(5e-10 0 0)
(4.66283e-10 0 0)
(4.70602e-10 0 0)
(4.43879e-10 0 0)
(3.48735e-10 0 0)
(2.64279e-10 0 0)
(1.63883e-10 0 0)
(1.19018e-10 0 0)
(9.80138e-11 0 0)
(1.16623e-10 0 0)
(1.24192e-10 0 0)
(7.59525e-11 0 0)
(-1.09403e-11 0 0)
(-5.79717e-11 0 0)
(2.55247e-11 0 0)
(1.3594e-10 0 0)
(1.19407e-10 0 0)
(1.02627e-10 0 0)
(4.90981e-11 0 0)
(-4.27435e-11 0 0)
(-6.1411e-11 0 0)
(-4.48186e-11 0 0)
(-7.06138e-11 0 0)
(-8.34789e-11 0 0)
(-7.68013e-11 0 0)
(-5.24579e-11 0 0)
(-2.67802e-11 0 0)
(-1.33412e-11 0 0)
(6.74795e-11 0 0)
(3.96751e-11 0 0)
(-4.52805e-11 0 0)
(-7.57136e-11 0 0)
(-1.49805e-11 0 0)
(2.79398e-11 0 0)
(1.25294e-11 0 0)
(-4.61508e-12 0 0)
(-2.95046e-11 0 0)
(-1.05224e-10 0 0)
(-1.3963e-10 0 0)
(-1.5534e-10 0 0)
(-1.42665e-10 0 0)
(-8.27975e-11 0 0)
(3.1141e-11 0 0)
(1.52373e-11 0 0)
(-5.54763e-11 0 0)
(-1.62225e-10 0 0)
(-2.81501e-10 0 0)
(-3.54513e-10 0 0)
(-3.73768e-10 0 0)
(-3.22734e-10 0 0)
(-2.76027e-10 0 0)
(-2.29299e-10 0 0)
(-7.28072e-11 0 0)
(5.72176e-11 0 0)
(1.37662e-10 0 0)
(1.62367e-10 0 0)
(7.67386e-11 0 0)
(-5.2486e-11 0 0)
(-1.5062e-10 0 0)
(-1.51946e-10 0 0)
(-1.62609e-10 0 0)
(-1.5475e-10 0 0)
(-8.68181e-11 0 0)
(-6.8938e-11 0 0)
(-2.89959e-11 0 0)
(5.40352e-11 0 0)
(5.45942e-11 0 0)
(2.13638e-11 0 0)
(-9.92665e-12 0 0)
(-1.93017e-11 0 0)
(-2.5992e-11 0 0)
(-2.18835e-11 0 0)
)
;

boundaryField
{
    left
    {
        type            noSlip;
    }
    right
    {
        type            noSlip;
    }
    empty
    {
        type            empty;
    }
}


// ************************************************************************* //
