/*--------------------------------*- C++ -*----------------------------------*\
| =========                 |                                                 |
| \\      /  F ield         | OpenFOAM: The Open Source CFD Toolbox           |
|  \\    /   O peration     | Version:  2106                                  |
|   \\  /    A nd           | Website:  www.openfoam.com                      |
|    \\/     M anipulation  |                                                 |
\*---------------------------------------------------------------------------*/
FoamFile
{
    version     2.0;
    format      ascii;
    arch        "LSB;label=32;scalar=64";
    class       volVectorField;
    location    "0.06";
    object      U;
}
// * * * * * * * * * * * * * * * * * * * * * * * * * * * * * * * * * * * * * //

dimensions      [0 1 -1 0 0 0 0];

internalField   nonuniform List<vector> 
11200
(
(0.662462146787 0.150569700279 0)
(0.558947382625 0.103243928806 0)
(0.383848129987 0.051351849883 0)
(0.283744352653 0.0248713759043 0)
(0.232073111881 0.0124171812627 0)
(0.201910703731 0.00662215430709 0)
(0.183209351669 0.00380093800839 0)
(0.171304224319 0.00231203902562 0)
(0.163563204808 0.00145834893457 0)
(0.158477009695 0.000936096303099 0)
(0.155140935772 0.000603657787788 0)
(0.152977344667 0.000388157773625 0)
(0.151602441425 0.000247978916431 0)
(0.150756073132 0.000157303865283 0)
(0.150260137797 9.91217698924e-05 0)
(0.149992262038 6.17133686598e-05 0)
(0.149867932879 3.7092699491e-05 0)
(0.149828262982 2.17827646296e-05 0)
(0.149837532958 1.84625642797e-05 0)
(0.149874126431 2.44699578797e-05 0)
(0.149920875118 2.96669550568e-05 0)
(0.14996726658 3.30393898656e-05 0)
(0.150008611147 3.50791747492e-05 0)
(0.150042648146 3.63951885165e-05 0)
(0.15006938114 3.85502718968e-05 0)
(0.150089950718 4.11259522484e-05 0)
(0.150105177501 4.35714834253e-05 0)
(0.150115983587 4.57807089424e-05 0)
(0.150123378599 4.7814654851e-05 0)
(0.150128275579 4.97799939447e-05 0)
(0.15013143504 5.18150372401e-05 0)
(0.150133415853 5.40601093265e-05 0)
(0.150134602887 5.64208984635e-05 0)
(0.150135252395 5.87625191874e-05 0)
(0.150135560912 6.10386055058e-05 0)
(0.150135688701 6.3277433627e-05 0)
(0.150135721362 6.55057575617e-05 0)
(0.150135701889 6.77352334117e-05 0)
(0.150135655736 6.99718333911e-05 0)
(0.150135597467 7.2218617378e-05 0)
(0.150135535206 7.44764259238e-05 0)
(0.150135473091 7.67445454494e-05 0)
(0.150135411879 7.90207903507e-05 0)
(0.150135349849 8.13016298515e-05 0)
(0.150135284806 8.35828214962e-05 0)
(0.150135216256 8.58605327958e-05 0)
(0.150135145876 8.81318795697e-05 0)
(0.150135076238 9.03943354382e-05 0)
(0.150135010096 9.26448967906e-05 0)
(0.150134950352 9.48804128512e-05 0)
(0.15013490098 9.70977417837e-05 0)
(0.150134869063 9.92942053208e-05 0)
(0.150134866365 0.000101467708589 0)
(0.150134909777 0.000103616082309 0)
(0.150135021757 0.000105736280119 0)
(0.150135232925 0.000107824053078 0)
(0.150135588069 0.000109873504994 0)
(0.15013615528 0.000111875565122 0)
(0.150137035148 0.000113816962229 0)
(0.150138376435 0.000115673898209 0)
(0.150140414367 0.000117396539797 0)
(0.150143541843 0.000118901609544 0)
(0.150148280466 0.000120182395065 0)
(0.150155301888 0.000121426633938 0)
(0.150165645067 0.000123091617957 0)
(0.150180889322 0.000125475469728 0)
(0.150203529549 0.000128316564116 0)
(0.150237477396 0.000131350057458 0)
(0.150288663293 0.000134340141103 0)
(0.150365750155 0.000137240585865 0)
(0.150481234097 0.000141788530935 0)
(0.150660229042 0.000154743322907 0)
(0.150942398568 0.000176906649925 0)
(0.151393047317 0.000208801970208 0)
(0.152153828752 0.00024069987679 0)
(0.153515849399 0.000197704398192 0)
(0.156161393098 -0.000240685937363 0)
(0.163760100324 -0.00228283982538 0)
(0.190194471783 -0.0116654827905 0)
(0.21148891972 -0.0544991027164 0)
(0.965407915966 0.289215638642 0)
(0.961961378375 0.252657545427 0)
(0.823572340066 0.159022336982 0)
(0.698139711515 0.0959945662495 0)
(0.61023399222 0.0582429274007 0)
(0.548997621555 0.0362031180567 0)
(0.506646282922 0.0231401163957 0)
(0.477673989697 0.0151040608255 0)
(0.457923493475 0.00996967967269 0)
(0.444502363934 0.00659409598668 0)
(0.435448550207 0.00433552802603 0)
(0.429413776536 0.00281231863788 0)
(0.425460674688 0.00178482336148 0)
(0.422933732769 0.00109596160315 0)
(0.421373299461 0.00063953157969 0)
(0.42045730443 0.000342267340471 0)
(0.419961621675 0.000153516559983 0)
(0.419733475742 4.00418875256e-05 0)
(0.419669940395 -1.83663089841e-05 0)
(0.419693749837 -4.52288503158e-05 0)
(0.419756850404 -5.35937863694e-05 0)
(0.419836031777 -5.22479759107e-05 0)
(0.419915640746 -4.61778394637e-05 0)
(0.419987398368 -3.80650323032e-05 0)
(0.42004754193 -2.8584154873e-05 0)
(0.420094886865 -1.9163305474e-05 0)
(0.420130582087 -1.08178001897e-05 0)
(0.420156609554 -3.87577028485e-06 0)
(0.420175031556 1.65837052245e-06 0)
(0.420187774523 5.88474982329e-06 0)
(0.420196501792 8.88466592994e-06 0)
(0.420202280381 1.07025555779e-05 0)
(0.4202058026 1.18100568981e-05 0)
(0.420207744377 1.27209907615e-05 0)
(0.42020873126 1.34472798856e-05 0)
(0.420209212581 1.40543458142e-05 0)
(0.420209411739 1.46009182164e-05 0)
(0.420209447586 1.51112491283e-05 0)
(0.420209395731 1.56028148578e-05 0)
(0.420209300609 1.60893574506e-05 0)
(0.42020918617 1.65797709719e-05 0)
(0.420209063477 1.70788993886e-05 0)
(0.420208934505 1.75880067467e-05 0)
(0.420208795894 1.81058325306e-05 0)
(0.420208643499 1.86305971436e-05 0)
(0.420208475851 1.9161960466e-05 0)
(0.420208294226 1.9701374107e-05 0)
(0.420208100937 2.025017994e-05 0)
(0.420207900275 2.08080897792e-05 0)
(0.420207699957 2.13754941194e-05 0)
(0.420207512831 2.19534380821e-05 0)
(0.420207359859 2.25439879709e-05 0)
(0.420207271969 2.3149678557e-05 0)
(0.420207291417 2.37716065576e-05 0)
(0.420207475264 2.44079788733e-05 0)
(0.42020790289 2.50545572428e-05 0)
(0.420208689175 2.57057341824e-05 0)
(0.420210006849 2.63539077081e-05 0)
(0.420212110842 2.69888670984e-05 0)
(0.42021537314 2.75792585174e-05 0)
(0.420220374926 2.80620386017e-05 0)
(0.420228158895 2.8361032152e-05 0)
(0.420240324812 2.85414239852e-05 0)
(0.420259124653 2.81473063179e-05 0)
(0.420287510035 2.56224955226e-05 0)
(0.42032928673 1.95855225334e-05 0)
(0.42039092224 9.15602241197e-06 0)
(0.420483261319 -7.32312154072e-06 0)
(0.420623159705 -3.26094204688e-05 0)
(0.420837664071 -7.07032786261e-05 0)
(0.421172277764 -0.000126057166751 0)
(0.421701664326 -0.000204122992361 0)
(0.422548560127 -0.000335895548091 0)
(0.423934206797 -0.000582354238335 0)
(0.426282002002 -0.00109005669935 0)
(0.430375571755 -0.00227016435623 0)
(0.437774178516 -0.00526526437389 0)
(0.452957799939 -0.0133006495699 0)
(0.481894309707 -0.0371931483179 0)
(0.490615809676 -0.108219915703 0)
(1.02222076829 0.23841769541 0)
(1.08213701925 0.295928400385 0)
(1.03447812064 0.239502030734 0)
(0.95462244746 0.174282391807 0)
(0.880013770237 0.121325766219 0)
(0.818664002483 0.0830613759525 0)
(0.771506681454 0.0566683161259 0)
(0.736800182232 0.0386454938248 0)
(0.711888469123 0.026299790421 0)
(0.694310253286 0.0177996649645 0)
(0.682096820609 0.0119289356151 0)
(0.673747634704 0.0078753306051 0)
(0.668146009901 0.00508810811487 0)
(0.664473628572 0.00318771317291 0)
(0.66213713648 0.00190902406583 0)
(0.660710230446 0.00106518536172 0)
(0.659889807419 0.000524017216008 0)
(0.659462855287 0.000191661284181 0)
(0.659279493488 -1.02595123449e-06 0)
(0.659240439192 -0.000107548789126 0)
(0.659280925875 -0.000156220957546 0)
(0.659356432781 -0.000168535473896 0)
(0.659441982303 -0.000160515304613 0)
(0.659523609332 -0.000142612018942 0)
(0.659594370691 -0.000121551700777 0)
(0.659651799681 -0.000100894902316 0)
(0.659696198146 -8.24300893538e-05 0)
(0.659729144854 -6.69155435724e-05 0)
(0.659752670322 -5.44531111675e-05 0)
(0.659768810086 -4.4800707952e-05 0)
(0.659779397195 -3.76320136925e-05 0)
(0.659786269315 -3.27122533669e-05 0)
(0.659790973174 -2.96446344738e-05 0)
(0.659793998195 -2.80936150594e-05 0)
(0.659795673681 -2.76393169273e-05 0)
(0.659796571741 -2.78540019578e-05 0)
(0.659797006616 -2.84323769258e-05 0)
(0.659797157558 -2.92239606596e-05 0)
(0.659797149988 -3.01331435557e-05 0)
(0.659797059377 -3.10969638851e-05 0)
(0.65979692718 -3.20789658403e-05 0)
(0.659796774128 -3.30602289497e-05 0)
(0.65979660733 -3.40323451525e-05 0)
(0.659796426476 -3.49923312524e-05 0)
(0.659796229611 -3.59389371289e-05 0)
(0.659796016601 -3.68710753766e-05 0)
(0.659795788416 -3.77867883559e-05 0)
(0.659795545731 -3.86832353469e-05 0)
(0.659795293449 -3.95582261072e-05 0)
(0.659795043157 -4.04065128246e-05 0)
(0.659794813761 -4.1222356577e-05 0)
(0.659794634833 -4.19999474463e-05 0)
(0.659794548733 -4.27346406437e-05 0)
(0.65979461351 -4.34254605986e-05 0)
(0.659794910054 -4.40778244829e-05 0)
(0.659795555064 -4.47078046065e-05 0)
(0.659796720693 -4.53539500624e-05 0)
(0.659798666013 -4.61006753386e-05 0)
(0.659801765084 -4.70895024842e-05 0)
(0.659806568996 -4.85598639767e-05 0)
(0.659813966324 -5.09834835373e-05 0)
(0.659825531699 -5.53381524053e-05 0)
(0.659843006316 -6.27355979152e-05 0)
(0.659867919792 -7.42621155462e-05 0)
(0.659903827309 -9.15122139577e-05 0)
(0.659957862921 -0.000117160841624 0)
(0.660040248158 -0.000154721922191 0)
(0.660165880198 -0.000210045714715 0)
(0.660358442716 -0.000292621075663 0)
(0.660656529912 -0.00041794387403 0)
(0.661123633781 -0.000613146910248 0)
(0.661857669352 -0.000930405720411 0)
(0.663021421901 -0.00146803391053 0)
(0.664900336273 -0.00241547219933 0)
(0.667985809063 -0.00416905931365 0)
(0.673064063704 -0.00760355293031 0)
(0.681322273006 -0.0146388780887 0)
(0.695040771894 -0.0295253316134 0)
(0.714223894793 -0.0622272272053 0)
(0.713241371802 -0.126578500715 0)
(1.02251472931 0.170808697047 0)
(1.10139026745 0.276497237599 0)
(1.11752768696 0.266659730943 0)
(1.0921581804 0.219884039355 0)
(1.05190682565 0.168129853729 0)
(1.01026735732 0.123496574174 0)
(0.97360249315 0.0887234839776 0)
(0.944044016851 0.0628382765194 0)
(0.921421013717 0.0439925140587 0)
(0.904690863176 0.0304445934474 0)
(0.892640780638 0.0207921856563 0)
(0.884158391721 0.0139717241665 0)
(0.878319164077 0.00919678969699 0)
(0.874395024683 0.00589186741116 0)
(0.871831233621 0.00363757867201 0)
(0.870214670577 0.00212901124921 0)
(0.869243317172 0.00114489460422 0)
(0.868699916086 0.000524878590472 0)
(0.868429438925 0.000152940281904 0)
(0.868325744245 -5.25230360795e-05 0)
(0.868320000881 -0.000152658487914 0)
(0.868365056868 -0.000187553453053 0)
(0.868430367916 -0.000184752499871 0)
(0.8684987604 -0.00016261575211 0)
(0.868561222759 -0.000132761517007 0)
(0.868613802011 -0.000101993561003 0)
(0.868655621937 -7.39964144665e-05 0)
(0.868687443753 -5.04134271081e-05 0)
(0.8687107706 -3.16007313794e-05 0)
(0.868727306324 -1.72009062869e-05 0)
(0.868738617373 -6.53242328435e-06 0)
(0.868745975831 1.16169851732e-06 0)
(0.868750361971 6.28005056318e-06 0)
(0.868752697077 9.22931657303e-06 0)
(0.868753949471 1.10980346738e-05 0)
(0.868754696041 1.23893269267e-05 0)
(0.868755118518 1.33582704694e-05 0)
(0.868755299456 1.4102366321e-05 0)
(0.868755336137 1.47067783812e-05 0)
(0.868755289565 1.52390422409e-05 0)
(0.868755191642 1.57433007329e-05 0)
(0.868755059043 1.62459797975e-05 0)
(0.868754898238 1.67607235905e-05 0)
(0.868754709693 1.72932934029e-05 0)
(0.868754492065 1.78460429595e-05 0)
(0.868754245637 1.84218384327e-05 0)
(0.868753972788 1.90281485343e-05 0)
(0.868753675599 1.96664374086e-05 0)
(0.86875336148 2.03252048691e-05 0)
(0.868753044843 2.10021974178e-05 0)
(0.868752746993 2.1696071907e-05 0)
(0.86875250154 2.24021108087e-05 0)
(0.868752356384 2.31093424329e-05 0)
(0.868752376387 2.37970203789e-05 0)
(0.868752649312 2.44301407905e-05 0)
(0.86875329241 2.49519752292e-05 0)
(0.868754460592 2.52754309381e-05 0)
(0.868756386626 2.52948875887e-05 0)
(0.868759416153 2.49403285826e-05 0)
(0.868763982533 2.39080899036e-05 0)
(0.868770566785 2.1482454726e-05 0)
(0.868780464695 1.68303999728e-05 0)
(0.868796276595 8.49768728534e-06 0)
(0.868821481598 -5.83726319881e-06 0)
(0.868860282687 -2.83855199226e-05 0)
(0.868918791536 -6.331395872e-05 0)
(0.869006927438 -0.000118198553475 0)
(0.869140325831 -0.00020498410272 0)
(0.869343514142 -0.000342875588481 0)
(0.86965472124 -0.000563575202264 0)
(0.870133413694 -0.000921455301931 0)
(0.87087438245 -0.00151277347232 0)
(0.872030582223 -0.00250258707712 0)
(0.873843641598 -0.00419621030359 0)
(0.876680088309 -0.00717642316782 0)
(0.881017296743 -0.0125694179491 0)
(0.88729654708 -0.0224833086523 0)
(0.895852448688 -0.0406727084668 0)
(0.904361206487 -0.0736033677023 0)
(0.896585796798 -0.125572463758 0)
(1.012878838 0.118962230949 0)
(1.0882077591 0.231805964031 0)
(1.137417922 0.253096921751 0)
(1.1541025366 0.228964904154 0)
(1.1499680729 0.188310823069 0)
(1.13543488505 0.146478818896 0)
(1.1176766874 0.109991653263 0)
(1.10073664602 0.0805846373812 0)
(1.08633919195 0.0579117586295 0)
(1.07489938186 0.0409151741937 0)
(1.06621512676 0.0284243185587 0)
(1.05984715677 0.019389221244 0)
(1.05531201616 0.0129474580666 0)
(1.05216941384 0.00842184664325 0)
(1.05005275245 0.00529426806677 0)
(1.04867231757 0.00317476323472 0)
(1.04780708973 0.00177315789441 0)
(1.04729288193 0.000875379785933 0)
(1.04701000948 0.0003248672194 0)
(1.04687441026 9.67169237466e-06 0)
(1.04682872513 -0.000151583842496 0)
(1.04683345304 -0.000217631878348 0)
(1.04686299789 -0.000227740481597 0)
(1.04690169655 -0.000207940185627 0)
(1.04694065172 -0.000174931977247 0)
(1.04697534006 -0.000138812194538 0)
(1.04700397985 -0.000105199163987 0)
(1.04702636273 -7.67644221933e-05 0)
(1.04704307925 -5.43384738631e-05 0)
(1.04705503118 -3.76888967468e-05 0)
(1.04706318255 -2.60239341964e-05 0)
(1.04706849341 -1.829605776e-05 0)
(1.04707190582 -1.33617938706e-05 0)
(1.04707435187 -1.01022695378e-05 0)
(1.04707624442 -7.76394648e-06 0)
(1.0470775456 -6.16995592642e-06 0)
(1.04707832691 -5.33917470528e-06 0)
(1.04707871538 -5.01303259291e-06 0)
(1.04707888073 -4.96565784167e-06 0)
(1.04707892021 -5.04177101451e-06 0)
(1.04707888352 -5.16315913198e-06 0)
(1.04707879635 -5.29260527575e-06 0)
(1.04707866924 -5.41205195158e-06 0)
(1.04707850549 -5.51324407793e-06 0)
(1.04707830805 -5.59348448764e-06 0)
(1.04707808447 -5.65509810512e-06 0)
(1.04707783587 -5.70885211393e-06 0)
(1.04707754775 -5.76014990762e-06 0)
(1.04707722272 -5.79625464454e-06 0)
(1.04707688209 -5.8119800553e-06 0)
(1.04707654733 -5.80702889283e-06 0)
(1.04707624846 -5.78297230688e-06 0)
(1.04707602784 -5.74596783672e-06 0)
(1.04707594351 -5.70926736388e-06 0)
(1.04707607571 -5.69594376019e-06 0)
(1.04707654068 -5.74646067218e-06 0)
(1.04707753242 -5.94104201129e-06 0)
(1.04707941815 -6.49380857355e-06 0)
(1.04708255133 -8.03141381963e-06 0)
(1.04708716913 -1.11786688534e-05 0)
(1.04709404775 -1.60808738202e-05 0)
(1.04710468729 -2.24836211331e-05 0)
(1.04712038811 -3.21498389278e-05 0)
(1.047143168 -4.83563318918e-05 0)
(1.04717675182 -7.59353929223e-05 0)
(1.04722657841 -0.000121816874187 0)
(1.04730073631 -0.000196799002779 0)
(1.04741141684 -0.000318136064321 0)
(1.04757725635 -0.000513794174504 0)
(1.04782674293 -0.000829452742402 0)
(1.04820305064 -0.00134019196057 0)
(1.04877142273 -0.0021709853266 0)
(1.04962824201 -0.00353556096422 0)
(1.05090645117 -0.00580592949262 0)
(1.05276433541 -0.00963317616993 0)
(1.05530271827 -0.0161469995567 0)
(1.05832817904 -0.0272035067994 0)
(1.06107587436 -0.0455542878791 0)
(1.06074342179 -0.0747630784011 0)
(1.04749551698 -0.115350418281 0)
(1.00447497349 0.081404751033 0)
(1.06917344444 0.181285899306 0)
(1.13080900187 0.216936802935 0)
(1.17375749675 0.210754078827 0)
(1.19866715166 0.183620234096 0)
(1.21022518416 0.149631527388 0)
(1.21354335924 0.116592160804 0)
(1.21257899993 0.0879513470378 0)
(1.20981977343 0.0646843332677 0)
(1.206633512 0.0465562147017 0)
(1.20368163199 0.032842437209 0)
(1.20122061489 0.0227013432591 0)
(1.19929616842 0.0153453790003 0)
(1.19785790034 0.0101049616128 0)
(1.19682122292 0.00644009763296 0)
(1.19609786991 0.0039293184072 0)
(1.19560919318 0.00225081514121 0)
(1.19529052935 0.00116274173521 0)
(1.19509116762 0.000485725718744 0)
(1.19497335365 8.89284963982e-05 0)
(1.19490949679 -0.000123001637471 0)
(1.1948795066 -0.000217916580288 0)
(1.19486977838 -0.000242687051831 0)
(1.19487118857 -0.000228787092124 0)
(1.19487792765 -0.000196598468275 0)
(1.19488650949 -0.000158615051072 0)
(1.19489500734 -0.000121913645832 0)
(1.19490248192 -8.99862711585e-05 0)
(1.1949085979 -6.40679884061e-05 0)
(1.1949133795 -4.40603894503e-05 0)
(1.19491702159 -2.91427718898e-05 0)
(1.19491977712 -1.82207535394e-05 0)
(1.194921895 -1.02843262295e-05 0)
(1.19492354627 -4.63091803019e-06 0)
(1.19492469994 -9.59743802141e-07 0)
(1.19492524208 1.19259749999e-06 0)
(1.19492541655 2.37259254303e-06 0)
(1.19492553146 3.13246045897e-06 0)
(1.19492564123 3.63929860341e-06 0)
(1.19492572767 3.9760403346e-06 0)
(1.19492576238 4.2269003701e-06 0)
(1.19492574081 4.45035852602e-06 0)
(1.1949256663 4.67865101855e-06 0)
(1.19492554105 4.92709371682e-06 0)
(1.19492536417 5.2002510503e-06 0)
(1.19492513017 5.49357392541e-06 0)
(1.19492484087 5.79051360462e-06 0)
(1.19492451736 6.0777101361e-06 0)
(1.19492417595 6.36559698919e-06 0)
(1.19492382159 6.67012421717e-06 0)
(1.1949234723 6.98911581311e-06 0)
(1.19492316079 7.30963333891e-06 0)
(1.19492293255 7.60905305965e-06 0)
(1.19492284951 7.85131953867e-06 0)
(1.19492299356 7.98084078824e-06 0)
(1.19492346058 7.91426757569e-06 0)
(1.19492430408 7.53175011548e-06 0)
(1.19492537348 6.65204565921e-06 0)
(1.19492675804 4.85350903514e-06 0)
(1.19492938504 1.30560942844e-06 0)
(1.19493462518 -4.45664831829e-06 0)
(1.19494274206 -1.37602132729e-05 0)
(1.19495393281 -2.90191558245e-05 0)
(1.19496988746 -5.32434461071e-05 0)
(1.19499284927 -9.13751924085e-05 0)
(1.19502568197 -0.000151406840283 0)
(1.19507246357 -0.000246167183713 0)
(1.19513904398 -0.000396132841592 0)
(1.1952337862 -0.000634141104248 0)
(1.19536847957 -0.00101314059786 0)
(1.19555895934 -0.00161883816309 0)
(1.19582466921 -0.00259096959151 0)
(1.1961845557 -0.0041594273244 0)
(1.19664189512 -0.00670285181222 0)
(1.19714305996 -0.0108385178376 0)
(1.19747056683 -0.0175446963671 0)
(1.19701926734 -0.0282587481398 0)
(1.19455664914 -0.0447992941936 0)
(1.18752226449 -0.0689357068924 0)
(1.16982859485 -0.0999857324082 0)
(0.998962487249 0.0544319874343 0)
(1.05311033338 0.133398002227 0)
(1.11628393396 0.170762506822 0)
(1.17301338925 0.175106953452 0)
(1.21791027995 0.159511654219 0)
(1.25048973954 0.134828768989 0)
(1.27286377382 0.108223004428 0)
(1.28772620954 0.0836148495506 0)
(1.29738250477 0.0626932048394 0)
(1.30355097762 0.0458370813454 0)
(1.30743225127 0.0327593003847 0)
(1.30983329571 0.0228992370603 0)
(1.31128464575 0.015637777765 0)
(1.31213167544 0.0104010534106 0)
(1.31259847859 0.00670092110721 0)
(1.31283029592 0.00414257607935 0)
(1.31292108034 0.00241698244556 0)
(1.31293125214 0.00128771454091 0)
(1.31289910918 0.000577064883677 0)
(1.31284858611 0.000153668354778 0)
(1.31279386227 -7.86545637408e-05 0)
(1.3127425652 -0.00018848963872 0)
(1.31269842436 -0.000223784557925 0)
(1.31266258709 -0.000217088037282 0)
(1.31263479829 -0.000189661712312 0)
(1.31261409553 -0.000154696953184 0)
(1.31259923955 -0.000119799300258 0)
(1.31258896978 -8.88503155259e-05 0)
(1.31258215169 -6.33703689185e-05 0)
(1.31257784844 -4.34999601829e-05 0)
(1.31257531687 -2.8678027351e-05 0)
(1.31257395928 -1.80618303561e-05 0)
(1.31257329513 -1.08020229266e-05 0)
(1.31257301417 -6.154422972e-06 0)
(1.31257293604 -3.43859682422e-06 0)
(1.31257303526 -1.89636771478e-06 0)
(1.31257337813 -9.07589312226e-07 0)
(1.31257376102 -3.39904624517e-07 0)
(1.3125739878 5.68114285232e-09 0)
(1.31257411047 2.23191988053e-07 0)
(1.31257418473 3.74592277669e-07 0)
(1.31257421788 5.0661441565e-07 0)
(1.3125742045 6.49615150923e-07 0)
(1.31257413945 8.21492991208e-07 0)
(1.31257401901 1.03275398209e-06 0)
(1.31257383933 1.29186759203e-06 0)
(1.31257359752 1.61137922443e-06 0)
(1.31257330162 1.99717800239e-06 0)
(1.31257297706 2.43421897661e-06 0)
(1.31257263498 2.89304573116e-06 0)
(1.31257227478 3.3557210032e-06 0)
(1.31257191194 3.79985917348e-06 0)
(1.31257157337 4.18856206923e-06 0)
(1.31257129528 4.46407260603e-06 0)
(1.31257112666 4.53934174035e-06 0)
(1.31257114192 4.28593979895e-06 0)
(1.3125714709 3.52144854176e-06 0)
(1.31257226049 2.05003075698e-06 0)
(1.3125733838 -1.30887183588e-07 0)
(1.31257509846 -3.34552841872e-06 0)
(1.31257784628 -8.93357283226e-06 0)
(1.31258164251 -1.88698072151e-05 0)
(1.31258665622 -3.50452340711e-05 0)
(1.31259319338 -6.06897854898e-05 0)
(1.31260142693 -0.000101199558369 0)
(1.31261118707 -0.000165010352456 0)
(1.31262171452 -0.000265371587581 0)
(1.31263110797 -0.000423219639056 0)
(1.31263532656 -0.000671811846894 0)
(1.312626425 -0.00106411105237 0)
(1.31258879448 -0.0016842560118 0)
(1.31249179917 -0.00266636181352 0)
(1.31227559815 -0.00422378224911 0)
(1.3118229475 -0.00669233710333 0)
(1.31090527803 -0.0105882590946 0)
(1.30907998693 -0.0166701064676 0)
(1.3055180235 -0.0259511311236 0)
(1.29885932519 -0.0395462208979 0)
(1.28694367772 -0.0582549227082 0)
(1.26575362301 -0.0812292525403 0)
(0.995736252391 0.0346339735913 0)
(1.0417955034 0.0905653432081 0)
(1.10222727209 0.121535986127 0)
(1.16490741726 0.12957341939 0)
(1.22200604445 0.121946880899 0)
(1.2694750997 0.105914728829 0)
(1.30671849061 0.0869360368256 0)
(1.33485146457 0.0684062697308 0)
(1.35551661509 0.0520607066202 0)
(1.37035696007 0.0385325394855 0)
(1.38080494758 0.0278219027591 0)
(1.38802020779 0.019619700175 0)
(1.39290096991 0.0135048551987 0)
(1.39612400466 0.00905141247539 0)
(1.39818951816 0.00587873878411 0)
(1.39946165588 0.0036691100591 0)
(1.40020192219 0.00216839988107 0)
(1.40059548051 0.00117918596722 0)
(1.40077129243 0.000551395135841 0)
(1.40081748362 0.000173052857474 0)
(1.40079257269 -3.81908470381e-05 0)
(1.4007339941 -0.000141448362654 0)
(1.40066461666 -0.000178375154415 0)
(1.4005973088 -0.000177378479431 0)
(1.4005384602 -0.000157136129478 0)
(1.40049042222 -0.000129345239666 0)
(1.40045320189 -0.000100838939011 0)
(1.4004255954 -7.51876915903e-05 0)
(1.40040591278 -5.38808399342e-05 0)
(1.4003924102 -3.71780337108e-05 0)
(1.40038351089 -2.46894673857e-05 0)
(1.40037789037 -1.57403675318e-05 0)
(1.40037450491 -9.56492600085e-06 0)
(1.40037261998 -5.4092449952e-06 0)
(1.40037174727 -2.6456491871e-06 0)
(1.40037147011 -7.76990982628e-07 0)
(1.40037140004 4.10599143243e-07 0)
(1.40037144883 1.05372622388e-06 0)
(1.400371632 1.40077945243e-06 0)
(1.40037183138 1.62734616559e-06 0)
(1.40037199597 1.81184283476e-06 0)
(1.40037211242 1.99280804665e-06 0)
(1.40037217584 2.19246754556e-06 0)
(1.40037218441 2.42401085358e-06 0)
(1.40037213814 2.6953305206e-06 0)
(1.40037203838 3.01153717996e-06 0)
(1.40037188773 3.37779819706e-06 0)
(1.4003716865 3.79933673515e-06 0)
(1.40037142241 4.27082288439e-06 0)
(1.40037109776 4.76386855808e-06 0)
(1.40037073628 5.26082327233e-06 0)
(1.40037035579 5.7418456843e-06 0)
(1.40036997401 6.17497167035e-06 0)
(1.40036961324 6.51085323855e-06 0)
(1.40036929959 6.67614906487e-06 0)
(1.40036905482 6.56201712155e-06 0)
(1.40036888331 6.00029802183e-06 0)
(1.40036878044 4.71977697676e-06 0)
(1.40036872871 2.38678817607e-06 0)
(1.40036858867 -1.26417475192e-06 0)
(1.40036839881 -7.5525748026e-06 0)
(1.40036797974 -1.77629330986e-05 0)
(1.40036657618 -3.38297766906e-05 0)
(1.40036313164 -5.88313241471e-05 0)
(1.40035580992 -9.76521234403e-05 0)
(1.40034134722 -0.000157876221255 0)
(1.40031410683 -0.000251316466748 0)
(1.40026448392 -0.000396444243723 0)
(1.40017630851 -0.000622274369093 0)
(1.4000228555 -0.000974445049412 0)
(1.39975943828 -0.00152386659958 0)
(1.39931072512 -0.00238110223151 0)
(1.39855017915 -0.00371709134378 0)
(1.39726557458 -0.00579092804615 0)
(1.39510324665 -0.00898209826267 0)
(1.39148089324 -0.0138146538879 0)
(1.385467308 -0.0209343768889 0)
(1.37571676409 -0.0309681708839 0)
(1.3604082763 -0.0442306787027 0)
(1.33663783275 -0.060049885699 0)
(0.994011725483 0.0192358157322 0)
(1.03484765297 0.052331244124 0)
(1.09198954113 0.0723537206498 0)
(1.15661146489 0.0791071063719 0)
(1.22028742374 0.0760622591403 0)
(1.2769475184 0.0672629582425 0)
(1.32411039645 0.0560422015989 0)
(1.36158994652 0.0446442759486 0)
(1.39033175958 0.0343230922067 0)
(1.41173984915 0.0256181176927 0)
(1.42728918457 0.0186277113116 0)
(1.43832290836 0.0132157205255 0)
(1.44597187406 0.00914628381296 0)
(1.45114269868 0.00616200023549 0)
(1.45453796854 0.00402372004634 0)
(1.45668833866 0.00252698841159 0)
(1.45798618809 0.00150563749983 0)
(1.45871607983 0.000829117316718 0)
(1.45908035438 0.000397373009899 0)
(1.45921982633 0.000135270526395 0)
(1.45922988359 -1.26750442459e-05 0)
(1.45917294831 -8.64191723349e-05 0)
(1.45908818865 -0.000114344379455 0)
(1.45899868634 -0.000115826402535 0)
(1.45891674377 -0.000103658346195 0)
(1.45884779359 -8.5900942601e-05 0)
(1.45879314313 -6.73020402882e-05 0)
(1.45875183799 -5.03782500747e-05 0)
(1.45872187689 -3.62169433026e-05 0)
(1.45870096117 -2.50535783559e-05 0)
(1.4586869058 -1.66573639932e-05 0)
(1.45867783093 -1.05895656519e-05 0)
(1.45867223291 -6.34757976769e-06 0)
(1.45866898375 -3.45564569966e-06 0)
(1.45866725677 -1.55342448504e-06 0)
(1.45866644065 -3.86779702776e-07 0)
(1.45866617565 3.19690726397e-07 0)
(1.45866622503 8.37188685052e-07 0)
(1.45866639944 1.20338572392e-06 0)
(1.45866661349 1.4750286008e-06 0)
(1.45866682135 1.70878857309e-06 0)
(1.45866699675 1.94173565187e-06 0)
(1.45866712491 2.19543261857e-06 0)
(1.4586671983 2.48127602288e-06 0)
(1.45866721335 2.80413943775e-06 0)
(1.45866716835 3.16450681008e-06 0)
(1.45866706275 3.55935316212e-06 0)
(1.45866689705 3.98211500363e-06 0)
(1.45866666965 4.42671497828e-06 0)
(1.45866638213 4.89813109891e-06 0)
(1.45866604042 5.38394255545e-06 0)
(1.45866564788 5.8582410088e-06 0)
(1.45866520667 6.28230581456e-06 0)
(1.45866471782 6.59991492641e-06 0)
(1.4586641798 6.72920679833e-06 0)
(1.45866358762 6.55268517418e-06 0)
(1.4586629371 5.90971990132e-06 0)
(1.45866223767 4.591173044e-06 0)
(1.45866134753 2.34619509764e-06 0)
(1.458659697 -1.04175632405e-06 0)
(1.45865686692 -6.22514872167e-06 0)
(1.45865232962 -1.48845166502e-05 0)
(1.45864476668 -2.85720159863e-05 0)
(1.45863204949 -4.96411800883e-05 0)
(1.45861063732 -8.18337629141e-05 0)
(1.45857467174 -0.000130832349454 0)
(1.45851450172 -0.000205295111317 0)
(1.45841426893 -0.00031850430002 0)
(1.4582480592 -0.000491132410485 0)
(1.4579745342 -0.000755625949482 0)
(1.45752700179 -0.00116035631391 0)
(1.45679722339 -0.00177901797376 0)
(1.45561171657 -0.00272262265325 0)
(1.45369531626 -0.00415372169128 0)
(1.45061817182 -0.00630039747854 0)
(1.44572391762 -0.00946086368294 0)
(1.43804680798 -0.0139762197516 0)
(1.4262926719 -0.0201365230562 0)
(1.40886271174 -0.0280192116935 0)
(1.38342570641 -0.0371929151072 0)
(0.993269871961 0.00617015476864 0)
(1.0315808274 0.017101100703 0)
(1.08671763173 0.0239872893538 0)
(1.15172945069 0.0265528222718 0)
(1.2181937928 0.0258031170912 0)
(1.27917025918 0.0230238398136 0)
(1.33123994647 0.0193273369731 0)
(1.37350506664 0.0154923926815 0)
(1.4064879722 0.0119720125013 0)
(1.43141231505 0.00897380869875 0)
(1.44973502594 0.00654850838994 0)
(1.46287067972 0.00466026516634 0)
(1.47205938877 0.00323416131164 0)
(1.47832349156 0.00218461765062 0)
(1.48247141382 0.00143037275333 0)
(1.48512303427 0.000901050454207 0)
(1.4867420577 0.000538966000309 0)
(1.48766789885 0.000298532103905 0)
(1.48814378115 0.000144662730091 0)
(1.48834011052 5.09252920371e-05 0)
(1.48837316296 -2.26413422452e-06 0)
(1.48831957205 -2.90182837358e-05 0)
(1.48822784294 -3.94142899356e-05 0)
(1.48812700442 -4.0325178637e-05 0)
(1.48803282947 -3.62948348251e-05 0)
(1.4879525984 -3.01925621389e-05 0)
(1.48788843803 -2.37151317074e-05 0)
(1.48783959852 -1.77701897302e-05 0)
(1.48780394825 -1.27580393873e-05 0)
(1.48777890888 -8.76973915098e-06 0)
(1.48776197449 -5.74080861327e-06 0)
(1.48775096055 -3.5261881953e-06 0)
(1.48774410283 -1.95516124821e-06 0)
(1.48774005697 -8.66154048787e-07 0)
(1.48773784408 -1.32434136598e-07 0)
(1.48773679399 3.58537910302e-07 0)
(1.48773642915 7.26647052455e-07 0)
(1.48773642212 9.92477866973e-07 0)
(1.48773659512 1.20769188135e-06 0)
(1.48773684141 1.41016155049e-06 0)
(1.48773709771 1.6226807476e-06 0)
(1.48773732887 1.85882056473e-06 0)
(1.48773751614 2.12721257622e-06 0)
(1.48773764999 2.43300113967e-06 0)
(1.48773772601 2.7790650176e-06 0)
(1.48773774206 3.16674493371e-06 0)
(1.4877376967 3.59604677775e-06 0)
(1.48773758838 4.06493963528e-06 0)
(1.48773741393 4.56850406262e-06 0)
(1.48773717077 5.10076665099e-06 0)
(1.4877368574 5.64774879039e-06 0)
(1.4877364695 6.18775610995e-06 0)
(1.48773599839 6.68934947896e-06 0)
(1.4877354285 7.10664348234e-06 0)
(1.48773473247 7.37245967481e-06 0)
(1.48773386309 7.38950879176e-06 0)
(1.48773274331 7.01676417979e-06 0)
(1.48773128478 6.04219147403e-06 0)
(1.4877294402 4.14959375116e-06 0)
(1.48772669234 1.16103644823e-06 0)
(1.4877218476 -2.94152586232e-06 0)
(1.48771393359 -9.2737198401e-06 0)
(1.48770156394 -1.92942546504e-05 0)
(1.48768180344 -3.42079690582e-05 0)
(1.48764997037 -5.6037310739e-05 0)
(1.48759861396 -8.77820120588e-05 0)
(1.4875156722 -0.000133726431949 0)
(1.48738146917 -0.000200189490025 0)
(1.48716390674 -0.000297484059397 0)
(1.48681340214 -0.000442614316094 0)
(1.48625166737 -0.000655048786934 0)
(1.48535302069 -0.000962798776298 0)
(1.48392032189 -0.00140692196525 0)
(1.48164892813 -0.00204391150478 0)
(1.47807677463 -0.00294664378293 0)
(1.47252210188 -0.0042001103876 0)
(1.46401943986 -0.00588427738689 0)
(1.45131737986 -0.00803524112698 0)
(1.43292361857 -0.0105994117915 0)
(1.40675599078 -0.013362031355 0)
(0.993270669475 -0.00616836804151 0)
(1.03158080839 -0.0170994313998 0)
(1.08671756194 -0.0239864050951 0)
(1.15172948297 -0.0265523885834 0)
(1.21819386468 -0.0258030163152 0)
(1.27917035491 -0.0230240137582 0)