/*--------------------------------*- C++ -*----------------------------------*\
| =========                 |                                                 |
| \\      /  F ield         | OpenFOAM: The Open Source CFD Toolbox           |
|  \\    /   O peration     | Version:  2106                                  |
|   \\  /    A nd           | Website:  www.openfoam.com                      |
|    \\/     M anipulation  |                                                 |
\*---------------------------------------------------------------------------*/
FoamFile
{
    version     2.0;
    format      ascii;
    arch        "LSB;label=32;scalar=64";
    class       surfaceScalarField;
    location    "0.148";
    object      phi;
}
// * * * * * * * * * * * * * * * * * * * * * * * * * * * * * * * * * * * * * //

dimensions      [0 3 -1 0 0 0 0];

oriented        oriented;

internalField   nonuniform List<scalar> 
799
(
1.59867e-32
4.19657e-32
5.33031e-32
4.06115e-32
1.35178e-32
-5.51508e-32
-1.16557e-31
-1.6445e-31
-1.76505e-31
-1.4074e-31
-8.6933e-32
-2.66435e-32
9.8497e-33
1.76173e-32
-5.94048e-33
-4.71363e-32
-9.99919e-32
-1.54302e-31
-1.96221e-31
-2.25781e-31
-2.19189e-31
-1.84615e-31
-1.24946e-31
-5.56579e-32
-1.65359e-32
-8.89351e-33
-5.20039e-32
-1.24064e-31
-1.91786e-31
-2.45795e-31
-2.50046e-31
-2.24138e-31
-1.79184e-31
-1.25501e-31
-1.01966e-31
-9.22271e-32
-1.10751e-31
-1.49959e-31
-1.81132e-31
-2.19107e-31
-2.29339e-31
-2.18099e-31
-1.95854e-31
-1.50338e-31
-1.26271e-31
-1.17115e-31
-1.3414e-31
-1.8419e-31
-2.25207e-31
-2.62536e-31
-2.6548e-31
-2.32623e-31
-1.904e-31
-1.37025e-31
-1.13508e-31
-1.20533e-31
-1.54475e-31
-2.14376e-31
-2.60563e-31
-2.8647e-31
-2.7403e-31
-2.21581e-31
-1.60154e-31
-1.05872e-31
-9.36845e-32
-1.35026e-31
-2.09395e-31
-2.93461e-31
-3.39414e-31
-3.22395e-31
-2.51482e-31
-1.50174e-31
-7.41442e-32
-5.79916e-32
-1.05418e-31
-1.99509e-31
-2.86305e-31
-3.31188e-31
-3.19901e-31
-2.60843e-31
-1.94763e-31
-1.45895e-31
-1.30644e-31
-1.45739e-31
-1.69926e-31
-1.95917e-31
-2.15519e-31
-2.33664e-31
-2.53958e-31
-2.66192e-31
-2.6418e-31
-2.33001e-31
-1.80374e-31
-1.26887e-31
-9.41298e-32
-1.12918e-31
-1.71399e-31
-2.53053e-31
-3.2228e-31
-3.35497e-31
-3.00057e-31
-2.14112e-31
-1.23103e-31
-6.9675e-32
-6.04449e-32
-1.18177e-31
-1.97215e-31
-2.70769e-31
-3.14452e-31
-2.97201e-31
-2.53108e-31
-1.90085e-31
-1.43175e-31
-1.34319e-31
-1.45479e-31
-1.75816e-31
-1.9237e-31
-1.89576e-31
-1.76538e-31
-1.6234e-31
-1.71948e-31
-2.02124e-31
-2.43331e-31
-2.7382e-31
-2.72063e-31
-2.37041e-31
-1.77316e-31
-1.17494e-31
-7.93145e-32
-7.35796e-32
-1.03144e-31
-1.55131e-31
-2.15697e-31
-2.70619e-31
-3.02076e-31
-3.04398e-31
-2.70257e-31
-2.05683e-31
-1.31496e-31
-6.62616e-32
-4.05072e-32
-6.25924e-32
-1.25308e-31
-2.09e-31
-2.73326e-31
-2.99295e-31
-2.75258e-31
-2.14452e-31
-1.51151e-31
-1.07249e-31
-1.05856e-31
-1.398e-31
-1.86156e-31
-2.22577e-31
-2.22412e-31
-1.88804e-31
-1.37262e-31
-9.47693e-32
-9.11507e-32
-1.30351e-31
-2.00584e-31
-2.66508e-31
-2.92492e-31
-2.60589e-31
-1.79356e-31
-8.89154e-32
-2.96984e-32
-3.64369e-32
-1.01713e-31
-1.90393e-31
-2.59824e-31
-2.65322e-31
-2.17471e-31
-1.38473e-31
-7.41844e-32
-6.60865e-32
-1.00292e-31
-1.67329e-31
-2.15006e-31
-2.1515e-31
-1.76796e-31
-1.0362e-31
-5.18557e-32
-3.60025e-32
-6.25506e-32
-1.27275e-31
-1.80469e-31
-2.1402e-31
-2.03295e-31
-1.53057e-31
-9.43916e-32
-3.49866e-32
-8.33867e-33
-1.30948e-32
-4.06935e-32
-8.51148e-32
-1.18412e-31
-1.38145e-31
-1.37236e-31
-1.14731e-31
-8.31746e-32
-4.24194e-32
-3.19825e-33
2.5007e-32
3.81853e-32
2.58772e-32
-6.62734e-33
-4.5476e-32
-7.4204e-32
-6.90747e-32
-2.64304e-32
4.07128e-32
1.0738e-31
1.38309e-31
1.2017e-31
6.3181e-32
-7.82409e-34
-2.62047e-32
1.21642e-32
1.07688e-31
2.24135e-31
3.05025e-31
3.09942e-31
2.38897e-31
1.2597e-31
3.81123e-32
3.07758e-32
1.16151e-31
2.71521e-31
4.25462e-31
5.14697e-31
5.11319e-31
4.20419e-31
3.07411e-31
2.31909e-31
2.35893e-31
3.31908e-31
4.71778e-31
6.09677e-31
6.97094e-31
7.09814e-31
6.72475e-31
6.14161e-31
5.80011e-31
5.98763e-31
6.67687e-31
7.69784e-31
8.70788e-31
9.41717e-31
9.73189e-31
9.79493e-31
9.84824e-31
1.01975e-30
1.09504e-30
1.19191e-30
1.28841e-30
1.34849e-30
1.36473e-30
1.36176e-30
1.36737e-30
1.42519e-30
1.54301e-30
1.69503e-30
1.84872e-30
1.9573e-30
2.00848e-30
2.02478e-30
2.03386e-30
2.07783e-30
2.17109e-30
2.29605e-30
2.44017e-30
2.57279e-30
2.68711e-30
2.79722e-30
2.90042e-30
3.015e-30
3.13402e-30
3.24786e-30
3.36676e-30
3.48295e-30
3.61291e-30
3.75845e-30
3.90825e-30
4.06141e-30
4.2047e-30
4.34911e-30
4.51109e-30
4.70251e-30
4.92514e-30
5.15537e-30
5.36209e-30
5.52097e-30
5.63966e-30
5.75008e-30
5.90394e-30
6.13628e-30
6.44069e-30
6.78371e-30
7.09921e-30
7.34897e-30
7.53054e-30
7.67623e-30
7.85355e-30
8.09701e-30
8.41844e-30
8.78724e-30
9.14781e-30
9.4741e-30
9.75231e-30
1.00134e-29
1.02967e-29
1.06202e-29
1.09928e-29
1.13826e-29
1.17645e-29
1.21264e-29
1.24677e-29
1.28225e-29
1.32083e-29
1.36364e-29
1.41009e-29
1.45668e-29
1.50201e-29
1.54464e-29
1.58574e-29
1.62883e-29
1.67535e-29
1.72755e-29
1.78382e-29
1.84096e-29
1.897e-29
1.9487e-29
1.99785e-29
2.04693e-29
2.09899e-29
2.15826e-29
2.22351e-29
2.29345e-29
2.36371e-29
2.42901e-29
2.48787e-29
2.54057e-29
2.58742e-29
2.65027e-29
2.72405e-29
2.8805e-29
3.14328e-29
3.52529e-29
4.23337e-29
4.52208e-29
4.82116e-29
3.1343e-29
-1.12052e-29
-6.23755e-29
-1.67763e-28
-1.58195e-28
-9.71937e-29
1.91037e-28
8.3548e-28
1.20106e-27
1.84376e-27
1.08237e-27
-7.35283e-28
-3.01036e-27
-7.51653e-27
-7.18671e-27
-5.90417e-27
1.77541e-27
1.69036e-26
2.26954e-26
3.30764e-26
1.66761e-26
-1.35831e-26
-4.09792e-26
-9.04673e-26
-7.1294e-26
-4.21662e-26
3.15989e-26
1.54654e-25
1.62764e-25
1.92027e-25
5.43404e-26
-1.45571e-25
-2.41533e-25
-4.15681e-25
-2.36494e-25
-3.16136e-26
2.19184e-25
5.89225e-25
4.55186e-25
3.83064e-25
-3.7054e-26
-5.43972e-25
-5.80019e-25
-7.54222e-25
-2.54548e-25
2.23658e-25
5.06878e-25
9.15323e-25
5.06889e-25
2.23674e-25
-2.54534e-25
-7.54217e-25
-5.80025e-25
-5.43984e-25
-3.70681e-26
3.83055e-25
4.55185e-25
5.89229e-25
2.19191e-25
-3.16079e-26
-2.36492e-25
-4.15683e-25
-2.41538e-25
-1.45576e-25
5.43367e-26
1.92025e-25
1.62764e-25
1.54654e-25
3.15991e-26
-4.21666e-26
-7.12948e-26
-9.04681e-26
-4.09802e-26
-1.3584e-26
1.66751e-26
3.30754e-26
2.26945e-26
1.69026e-26
1.77457e-27
-5.90492e-27
-7.18738e-27
-7.51715e-27
-3.011e-27
-7.35937e-28
1.08166e-27
1.84302e-27
1.20031e-27
8.34741e-28
1.9037e-28
-9.77806e-29
-1.58682e-28
-1.68182e-28
-6.27946e-29
-1.16688e-29
3.07736e-29
4.75599e-29
4.45368e-29
4.16912e-29
3.47385e-29
3.10554e-29
2.85483e-29
2.70319e-29
2.62542e-29
2.55418e-29
2.49634e-29
2.43612e-29
2.37576e-29
2.31441e-29
2.25402e-29
2.19552e-29
2.14031e-29
2.08763e-29
2.03515e-29
1.98077e-29
1.92306e-29
1.86293e-29
1.80394e-29
1.74879e-29
1.70016e-29
1.65735e-29
1.61745e-29
1.57786e-29
1.53501e-29
1.4891e-29
1.4409e-29
1.39246e-29
1.34694e-29
1.30494e-29
1.26782e-29
1.23446e-29
1.20286e-29
1.17133e-29
1.13716e-29
1.09988e-29
1.06049e-29
1.02124e-29
9.85557e-30
9.55691e-30
9.31014e-30
9.09665e-30
8.87323e-30
8.60487e-30
8.29257e-30
7.94303e-30
7.60744e-30
7.32199e-30
7.09716e-30
6.9376e-30
6.79137e-30
6.62764e-30
6.41903e-30
6.15246e-30
5.86742e-30
5.58946e-30
5.36012e-30
5.20105e-30
5.09405e-30
5.01495e-30
4.91439e-30
4.75548e-30
4.53284e-30
4.26655e-30
4.00682e-30
3.80863e-30
3.69665e-30
3.66269e-30
3.65968e-30
3.62243e-30
3.51164e-30
3.31788e-30
3.07961e-30
2.85445e-30
2.69027e-30
2.6079e-30
2.58451e-30
2.58258e-30
2.55396e-30
2.47878e-30
2.35773e-30
2.20908e-30
2.06893e-30
1.94869e-30
1.86777e-30
1.81588e-30
1.77813e-30
1.74609e-30
1.69058e-30
1.62203e-30
1.5338e-30
1.44251e-30
1.37388e-30
1.31817e-30
1.29302e-30
1.2665e-30
1.22245e-30
1.16225e-30
1.07008e-30
9.89372e-31
9.2915e-31
9.01274e-31
9.12587e-31
9.19056e-31
9.13471e-31
8.73641e-31
8.00693e-31
7.28178e-31
6.60678e-31
6.19209e-31
5.95681e-31
5.6996e-31
5.46405e-31
5.18238e-31
5.06223e-31
5.23683e-31
5.53899e-31
5.82285e-31
5.64365e-31
4.81525e-31
3.5486e-31
2.16483e-31
1.40256e-31
1.59491e-31
2.65487e-31
4.20208e-31
5.27166e-31
5.35981e-31
4.26774e-31
2.30303e-31
4.7812e-32
-5.78245e-32
-3.21185e-32
1.10162e-31
2.82988e-31
4.18867e-31
4.34875e-31
3.27688e-31
1.53805e-31
-2.3045e-32
-1.0718e-31
-8.12742e-32
3.22778e-32
1.80556e-31
2.74475e-31
2.90626e-31
2.21675e-31
1.04852e-31
4.79978e-33
-5.86258e-32
-6.00419e-32
-2.05397e-32
3.03605e-32
8.34251e-32
1.11663e-31
1.25155e-31
1.20482e-31
9.62025e-32
6.5052e-32
2.0551e-32
-1.83831e-32
-4.71966e-32
-5.91178e-32
-4.80459e-32
-2.42788e-32
1.26999e-32
4.78548e-32
7.81491e-32
9.14805e-32
8.16444e-32
5.22393e-32
1.79427e-34
-4.74245e-32
-8.59465e-32
-9.70819e-32
-7.45704e-32
-4.02249e-32
9.90725e-33
4.42035e-32
6.0727e-32
6.19578e-32
3.5319e-32
6.88219e-33
-3.15762e-32
-6.57547e-32
-8.09748e-32
-8.48718e-32
-5.96758e-32
-2.32622e-32
1.53608e-32
4.64164e-32
4.91631e-32
3.29283e-32
-2.6963e-33
-4.18213e-32
-6.8726e-32
-8.01533e-32
-6.85374e-32
-4.27436e-32
-1.04837e-32
1.71348e-32
3.03168e-32
2.44181e-32
4.10163e-33
-2.07579e-32
-3.98201e-32
-4.00247e-32
-3.1429e-32
-1.7594e-32
-1.31131e-32
-2.60121e-32
-3.69583e-32
-4.37036e-32
-2.34121e-32
1.61509e-32
4.9692e-32
6.40296e-32
2.96488e-32
-3.15195e-32
-9.35325e-32
-1.23408e-31
-9.09799e-32
-1.98551e-32
6.52108e-32
1.13917e-31
1.00004e-31
3.60676e-32
-5.3106e-32
-1.11414e-31
-1.1648e-31
-6.57946e-32
1.47574e-32
7.47374e-32
9.29321e-32
5.58588e-32
-9.90349e-33
-6.44314e-32
-8.46825e-32
-5.22679e-32
7.33164e-33
6.31269e-32
8.81131e-32
6.12175e-32
3.52347e-33
-6.03438e-32
-9.94389e-32
-8.80556e-32
-3.8296e-32
3.34284e-32
9.63356e-32
1.19093e-31
1.0168e-31
4.5962e-32
-2.53794e-32
-8.1208e-32
-1.11955e-31
-1.00561e-31
-5.42999e-32
8.63546e-33
7.81845e-32
1.23724e-31
1.3619e-31
1.09199e-31
4.24367e-32
-3.54251e-32
-1.05552e-31
-1.36297e-31
-1.1058e-31
-3.89399e-32
5.99897e-32
1.41129e-31
1.71432e-31
1.37471e-31
4.91269e-32
-5.05226e-32
-1.18815e-31
-1.24522e-31
-6.41018e-32
3.02913e-32
1.1496e-31
1.51009e-31
1.20682e-31
4.50006e-32
-3.94921e-32
-9.20279e-32
-8.30475e-32
-2.57127e-32
5.68149e-32
1.222e-31
1.34418e-31
1.00305e-31
2.64018e-32
-4.2001e-32
-7.04409e-32
-5.77222e-32
4.64029e-33
6.9696e-32
1.12643e-31
1.21243e-31
7.88728e-32
2.77514e-32
-2.05256e-32
-4.2885e-32
-2.32857e-32
9.83578e-33
5.49236e-32
8.56618e-32
9.12274e-32
8.30783e-32
5.865e-32
3.66097e-32
2.34918e-32
1.62109e-32
1.81957e-32
2.05835e-32
1.87124e-32
1.98178e-32
1.98566e-32
2.95871e-32
5.23379e-32
7.61826e-32
1.05266e-31
1.13752e-31
9.97023e-32
6.44946e-32
6.34165e-33
-3.73992e-32
-6.33044e-32
-4.85421e-32
4.85771e-33
6.89118e-32
1.32117e-31
1.55575e-31
1.4028e-31
8.83596e-32
2.45985e-32
-2.45339e-32
-4.51728e-32
-2.40139e-32
6.57148e-33
5.52396e-32
7.55296e-32
7.60652e-32
6.89453e-32
2.40317e-32
1.45378e-32
-1.80383e-32
-2.43459e-32
-4.52673e-33
)
;

boundaryField
{
    left
    {
        type            calculated;
        value           uniform 0;
    }
    right
    {
        type            calculated;
        value           uniform 0;
    }
    empty
    {
        type            empty;
        value           nonuniform List<scalar> 0();
    }
}


// ************************************************************************* //
