/*--------------------------------*- C++ -*----------------------------------*\
| =========                 |                                                 |
| \\      /  F ield         | OpenFOAM: The Open Source CFD Toolbox           |
|  \\    /   O peration     | Version:  2106                                  |
|   \\  /    A nd           | Website:  www.openfoam.com                      |
|    \\/     M anipulation  |                                                 |
\*---------------------------------------------------------------------------*/
FoamFile
{
    version     2.0;
    format      ascii;
    arch        "LSB;label=32;scalar=64";
    class       volScalarField;
    location    "0.175";
    object      p;
}
// * * * * * * * * * * * * * * * * * * * * * * * * * * * * * * * * * * * * * //

dimensions      [0 2 -2 0 0 0 0];

internalField   nonuniform List<scalar> 
11200
(
150.474732767
147.546130787
146.432279284
145.904947067
145.537616158
145.242836493
144.981191371
144.73265156
144.488131738
144.243062182
143.994745706
143.741427628
143.481875993
143.215155294
142.940498747
142.657233001
142.364732293
142.062390668
141.749609324
141.425800254
141.090339585
140.742578335
140.381858185
140.007511301
139.618852108
139.215179262
138.795776493
138.359913309
137.90684575
137.435817036
136.946058149
136.436788325
135.907215143
135.356534722
134.783932358
134.18858369
133.569654577
132.92630134
132.257671245
131.562902946
130.841126814
130.091465127
129.313032229
128.504934584
127.666270681
126.796130757
125.89359627
124.957739157
123.987620811
122.982290619
121.940783925
120.862119178
119.745294221
118.589281491
117.393021812
116.155416461
114.875317155
113.551513488
112.182717145
110.767542021
109.304479282
107.791865919
106.2278445
104.610314311
102.936865619
101.204693587
99.4104878227
97.5502885692
95.6192919003
93.6115831901
91.5197734386
89.3345035362
87.0435752013
84.63080334
82.0741050149
79.3418264644
76.3863790094
73.1352163334
69.434752081
64.6718331179
148.681690956
147.323516613
146.53254446
146.032529133
145.641539687
145.317655834
145.0331333
144.768529559
144.513040035
144.260516257
144.007130877
143.750370326
143.488497617
143.22023635
142.944586171
142.660712322
142.367877452
142.065398777
141.752617893
141.428872881
141.093513644
140.74586468
140.385282301
140.011098381
139.622616915
139.219130826
138.799921008
138.364255135
137.911387958
137.440561715
136.951006411
136.441939753
135.912567423
135.362089191
134.789692281
134.194552354
133.575834985
132.93269646
132.264284066
131.569736538
130.848184393
130.098750133
129.320548435
128.512686201
127.674262488
126.804368259
125.902085903
124.96648854
123.996639071
122.9915888
121.950375486
120.872020576
119.75552558
118.599867483
117.403992836
116.166810044
114.887179546
113.563901699
112.19570167
110.781210313
109.318940287
107.807256161
106.244334242
104.62811182
102.95622153
101.225922346
99.4339989212
97.5766141808
95.6491289549
93.645858611
91.5597342389
89.3817993009
87.1005065341
84.7007202973
82.1620457377
79.4559751083
76.5417097849
73.3614090348
69.8122673757
65.6993070035
147.686500792
147.032300133
146.47994372
146.042324961
145.670699967
145.348596948
145.059495725
144.78926038
144.528795833
144.272313155
144.015927332
143.756956688
143.493489233
143.22409807
142.947662191
142.663253035
142.370061017
142.067347584
141.754414468
141.430584802
141.095196554
140.747610157
140.387081622
140.012957305
139.624545097
139.221135357
138.80200667
138.366425627
137.913646679
137.442912299
136.953453362
136.444489805
135.915230799
135.364868917
134.792586297
134.197560918
133.578959516
132.935938896
132.267647206
131.573224018
130.851800713
130.102500733
129.324439863
128.516726319
127.678460712
126.808735872
125.906636477
124.971238489
124.001608325
122.996801612
121.955861399
120.877815623
119.761673732
118.606422406
117.411020039
116.174389493
114.895408903
113.572900394
112.205616053
110.792219946
109.331264903
107.821163878
106.26015325
104.646263189
102.977256779
101.250541398
99.4630754565
97.6112603682
95.6907820566
93.6964019598
91.6216703866
89.4585243082
87.1968686142
84.8237868064
82.3225565214
79.6713144262
76.8420799217
73.8032237285
70.5187494406
66.965594894
147.136739712
146.773358122
146.373459378
146.004467822
145.666849687
145.358745555
145.073380311
144.802674252
144.54029995
144.281630381
144.023247498
143.762619783
143.497847458
143.227463329
142.950291383
142.665349157
142.371780382
142.068808906
141.755707624
141.43177662
141.096324985
140.748662584
140.388148246
140.014058827
139.625683584
139.222314743
138.803230634
138.367696617
137.914966037
137.444280371
136.954869336
136.44595108
135.916732989
135.366413337
134.794181862
134.199212898
133.580674037
132.937722995
132.269506916
131.575165823
130.853831919
130.104629664
129.326676288
128.51908185
127.680949269
126.811374221
125.909444923
124.974241746
124.004836517
123.000291364
121.959657153
120.881971404
119.76625533
118.611509977
117.416711293
116.180803828
114.902692716
113.581233449
112.215219111
110.803364047
109.344286059
107.836488538
106.278310007
104.667892091
103.003132952
101.281633753
99.5006194075
97.6568380141
95.7464365702
93.7648052196
91.7063869581
89.5644521275
87.3307686571
84.9952937624
82.5459367956
79.9685960727
77.2485199568
74.3759916106
71.3545990976
68.2215053411
146.802691921
146.570896187
146.269483042
145.958504796
145.653663728
145.361638494
145.082660854
144.813532527
144.550569864
144.290482695
144.030510602
143.768416199
143.502407022
143.231034067
142.953100702
142.667590019
142.373609441
142.070349799
141.757055803
141.433004858
141.097492113
140.749821288
140.389296076
140.015205896
139.626853557
139.223522648
138.804486265
138.369007356
137.91633794
137.44571895
136.956380189
136.447540468
135.918407662
135.368178404
134.796038684
134.201164637
133.582721633
132.939867291
132.271752244
131.577516858
130.856295884
130.107216121
129.329397253
128.521952051
127.683986673
126.814600617
125.91288671
124.977930906
124.008811763
123.004599842
121.964356502
120.887131911
119.771962705
118.617868746
117.42384886
116.18887513
114.911885181
113.591774753
112.227386759
110.817500324
109.360813843
107.855914585
106.301266106
104.695173892
103.035744492
101.320836198
99.5480016663
97.7144190741
95.816808922
93.8513370227
91.8135066305
89.6980530414
87.4988675833
85.209030963
82.8211213178
80.3281273735
77.7258494005
75.0187256702
72.2281152596
69.4047170086
146.599299607
146.423397313
146.182201847
145.91487496
145.637686532
145.361046493
145.089354801
144.822850905
144.560083222
144.29907166
144.037781316
143.774345183
143.507137853
143.234768562
142.956044479
142.669927972
142.375497057
142.071912377
141.75839122
141.43418781
141.098578785
140.750852316
140.390299039
140.016209219
139.627872227
139.224567219
138.805564647
138.370125428
137.917500091
137.446928328
136.957638961
136.448849959
135.919768622
135.369591705
134.797505834
134.202688161
133.584307012
132.941521965
132.273484132
131.579337928
130.858219045
130.109254955
129.331567431
128.524271734
127.686477393
126.817288417
125.91580328
124.981114883
124.012310384
123.0084705
121.968668627
120.891969807
119.777428767
118.624087374
117.430971338
116.197086291
114.921413374
113.602901247
112.240458105
110.832937849
109.379122326
107.877718322
106.32734283
104.726480199
103.073463445
101.366442766
99.6033473782
97.7818437796
95.8992922257
93.9527070674
91.9387323365
89.853656515
87.6935136258
85.4543626236
83.1329187745
80.7278306451
78.2421664284
75.6880828329
73.0925351775
70.5026353033
146.476183003
146.320575167
146.11427273
145.877709689
145.622233371
145.358952643
145.094338081
144.830828007
144.568693164
144.30710571
144.044731635
143.780094474
143.511764509
143.23843326
142.958928625
142.6722031
142.377311815
142.073388976
141.759626585
141.435256764
141.099537735
140.751743122
140.391154112
140.017053137
139.628721266
139.225432687
138.806455012
138.371046992
137.918457645
137.447925807
136.958679905
136.449937881
135.920907274
135.370785561
134.798760558
134.204010326
133.585703628
132.943000872
132.275054194
131.581007306
130.859995632
130.111150429
129.333597782
128.526457425
127.688843567
126.819865493
125.91862805
124.984231906
124.015773645
123.012345584
121.97303524
120.896925045
119.783090947
118.630600605
117.438511035
116.205865345
114.93168853
113.614982869
112.254726654
110.849856362
109.399272122
107.901814262
106.356253835
104.761278471
103.115476537
101.41731887
99.665141175
97.8571297423
95.9913151077
94.0655831227
92.0777200206
90.0255201064
87.9070051008
85.7208436079
83.4671061643
81.1485530434
78.7727375026
76.3552657964
73.9230266911
71.5153971544
146.402103498
146.252093206
146.065337067
145.849230962
145.609524051
145.356701909
145.098063872
144.837324714
144.575956985
144.314034289
144.050815787
143.785178079
143.5158807
143.241702471
142.961499956
142.674223378
142.378911296
142.074676415
141.760689214
141.436162557
141.100338524
140.752477814
140.391851482
140.017733921
139.629401327
139.226122919
138.807163559
138.371779966
137.919219807
137.448721121
136.959511931
136.450810107
135.921823368
135.371749435
134.799776275
134.205082414
133.586837469
132.94420238
132.276330267
131.582367633
130.861456096
130.112729228
129.335313772
128.52833281
127.690905239
126.822146188
125.921167597
124.987078724
124.018986603
123.015996468
121.977211864
120.901733997
119.788661542
118.637089756
117.446109451
116.214805717
114.942256208
113.627526319
112.269667701
110.867714038
109.420673229
107.927525519
106.387216707
104.79865014
103.160681561
101.472115609
99.7317068685
97.9381694449
96.0902021954
94.1865406669
92.2260534885
90.2079110472
88.1318695606
85.9987436107
83.811149774
81.5746264051
79.2992173933
77.0015391168
74.7062884191
72.445496182
146.359827273
146.210379454
146.033963473
145.830224766
145.600691561
145.354982654
145.100622139
144.841983211
144.581275847
144.319181032
144.055382874
143.789023529
143.519011509
143.244198228
142.963467022
142.675769768
142.38013448
142.07565866
141.761497
141.436847978
141.100941478
140.753028302
140.39237178
140.018241267
139.629905512
139.226633739
138.807687722
138.372322446
137.919784609
137.449311701
136.960131476
136.451461787
135.922510564
135.372475905
134.80054632
134.205901149
133.587711122
132.945138967
132.277340214
131.583463649
130.862649592
130.114035088
129.336751928
128.529927535
127.692685858
126.824148205
125.923434086
124.989662048
124.02195047
123.019418182
121.98118505
120.906372453
119.794103549
118.643503357
117.453698806
116.223818679
114.952992711
113.640351827
112.285027499
110.886150563
109.44285006
107.95425266
106.419482719
104.83766358
103.207922144
101.52939806
99.8012609055
98.0227391858
96.1931702802
94.312081759
92.3793200515
90.3952527634
88.3610779842
86.279289826
84.1543387121
81.993526564
79.8081134504
77.6145251459
75.4348252706
73.2952175202
146.34055093
146.190672945
146.018709639
145.820773754
145.596211971
145.354092451
145.101956872
144.844447507
144.584119918
144.321958234
144.057867184
143.791131044
143.520740259
143.245587408
142.964571906
142.676647629
142.380837574
142.076231404
141.761975474
141.437260567
141.101309998
140.753369219
140.392697304
140.018560302
139.630225616
139.22695976
138.808023577
138.372671351
137.920149366
137.449694995
136.960535975
136.451890361
135.922966436
135.372962815
134.801068733
134.206464504
133.588322063
132.945805507
132.278071607
131.584270282
130.863546479
130.115039583
129.337884612
128.531213241
127.69415472
126.825836822
125.925386939
124.991933231
124.024605731
123.02253743
121.984865397
120.910731793
119.799284923
118.649680387
117.461082242
116.232664521
114.963612379
113.653124516
112.300412267
110.904708254
109.465259832
107.98134068
106.452254723
104.877344303
103.256003505
101.587698105
99.8719956491
98.1086089694
96.2974636666
94.4387968871
92.533302895
90.5823510951
88.5882875356
86.5548678197
84.4878035462
82.3954470967
80.2895330558
78.1858312752
76.1040525802
74.0661474497
146.340553566
146.190689054
146.018736691
145.820810028
145.596256688
145.354144767
145.102015865
144.844512355
144.584189932
144.322032845
144.05794593
143.791213562
143.520826284
143.24567676
142.964664472
142.676743364
142.380936487
142.076333563
141.762080999
141.437369632
141.101422833
140.753486115
140.392818637
140.018686565
139.630357482
139.227097944
138.808168991
138.372825139
137.92031294
137.449869917
136.960724284
136.452094533
135.923189434
135.373208197
134.801340819
134.206768557
133.588664472
132.946194045
132.278515867
131.584782318
130.864140362
130.115732368
129.338697053
128.532170533
127.695287417
126.827182025
125.926989766
124.993848538
124.026900171
123.025291972
121.988178325
120.914722378
119.804097867
118.655491259
117.468104033
116.241155524
114.973885875
113.665560496
112.315471865
110.922949083
109.487362602
108.008129203
106.484727834
104.91671295
103.303734204
101.645563011
99.9421315406
98.1935901567
96.4003858944
94.563372567
92.6840057171
90.7645271734
88.8080816596
86.819300336
84.8047020255
82.7731946707
80.7365749265
78.7098755853
76.7110197296
74.7591243051
146.35983524
146.21042816
146.034045233
145.830334335
145.600826575
145.355140382
145.100799772
144.842178298
144.581486334
144.319405217
144.055619383
143.78927129
143.519269736
143.244466383
142.963744773
142.676056979
142.380431191
142.075965074
141.761813483
141.437175052
141.101279832
140.7533788
140.392735515
140.018619733
139.630300606
139.227047611
138.808123074
138.372782624
137.920273702
137.449834643
136.96069429
136.452071758
135.923176448
135.373208278
134.801358089
134.206808144
133.58873269
132.946298631
132.278666241
131.584989933
130.864419113
130.116099143
129.339172346
128.532779188
127.696059564
126.828154291
125.928206723
124.99536435
124.028780617
123.027616924
121.991044709
120.918247769
119.80842482
118.660792565
117.474589166
116.24907838
114.983554346
113.677347395
112.329828744
110.940422468
109.50861474
108.033961152
106.516104268
104.954795579
103.349920657
101.701537775
100.00994675
98.2757057732
96.4997098662
94.6833368626
92.8285390685
90.9380624547
89.0158557842
87.0671740572
85.0990145465
83.1205371827
81.1434251918
79.1820972369
77.253290179
75.3744695374
146.402116986
146.252175637
146.06547519
145.849415671
145.60975121
145.356966797
145.098361707
144.837651373
144.576309034
144.314408904
144.051210696
143.785591526
143.516311395
143.242149539
142.961962867
142.674701921
142.379405546
142.075186717
141.761216178
141.436707063
141.10090174
140.753061187
140.392456737
140.018363569
139.630058161
139.226810621
138.807886628
138.372543906
137.92003133
137.449588367
136.960444759
136.451820402
135.922925438
135.372960563
134.801117476
134.20657943
133.58852185
132.946113032
132.278514886
131.584883796
130.864371545
130.116126353
129.339294004
128.533019157
127.696446834
126.828724137
125.929002048
124.996437284
124.030194478
123.029448587
121.993387427
120.921214589
119.812152749
118.665447538
117.480372217
116.256232936
114.992375131
113.688191038
112.343127913
110.956696703
109.528490552
108.058196215
106.545615316
104.990689335
103.393529197
101.754444263
100.073977772
98.3530162839
96.5928739587
94.7953612404
92.962930959
91.0988475678
89.2074190914
87.294250071
85.3665628138
83.4335334024
81.5066100945
79.5997506626
77.7291052022
75.9116132693
146.476202385
146.320693469
146.114470294
145.877972948
145.622556092
145.359327905
145.094759009
144.831288749
144.569188894
144.307632493
144.045286345
143.780674703
143.512368494
143.239059806
142.959577025
142.672873072
142.378003461
142.074102759
141.76036332
141.43601762
141.100324286
140.752557409
140.391998654
140.01793118
139.629636682
139.226390481
138.807461365
138.372109449
137.919585395
137.449130015
136.9599741
136.451338425
135.922433932
135.372462106
134.800615478
134.206078233
133.588026899
132.945631099
132.278054335
131.584454868
130.86398671
130.115800755
129.339046021
128.532871101
127.696425859
126.828863282
125.929341453
124.997025746
124.031091307
123.030725775
121.995132254
120.9235328
119.815172435
118.669323805
117.485292832
116.262425178
115.000113812
113.697808163
112.355024945
110.97136038
109.546504
108.080260498
106.57256842
105.023526217
103.433429009
101.802818651
100.132526456
98.4237330358
96.6780493745
94.8976190317
93.0852409785
91.2445158093
89.3800248427
87.4975426785
85.6043001437
83.7092826335
81.823573558
79.9607500261
78.1368366588
76.3692655369
146.599325547
146.423555191
146.182464052
145.91522255
145.638110697
145.361537797
145.089904131
144.823450643
144.56072716
144.299754794
144.038499724
143.775095865
143.507918617
143.235577924
142.956881566
142.670792432
142.376388984
142.072832246
141.75933985
141.435166333
141.099588567
140.751895247
140.39137945
140.017332749
139.629043269
139.225791414
138.806849417
138.371479951
137.918935582
137.44845854
136.9592807
136.450623721
135.921699346
135.371709842
134.799848556
134.205300538
133.587243269
132.944847519
132.277278182
131.583695204
130.863254655
130.11510994
129.338413086
128.532316336
127.695973993
126.828544354
125.929191935
124.997089977
124.031423163
123.031390658
121.996209326
120.925117895
119.817381539
118.672297297
117.48920046
116.267472238
115.006548526
113.705930166
112.365195163
110.984013105
109.562162386
108.099550872
106.596240347
105.052476937
103.468726209
101.845716067
100.184489465
98.4864686039
96.7535277527
94.9880797717
93.1931795909
91.3726451695
89.5311998965
87.6746335375
85.810006812
83.9459123636
82.0928641763
80.2639452264
78.4751945109
76.7453022706
146.802725096
146.571098498
146.269816371
145.95894372
145.654196169
145.36225208
145.083344087
144.814276022
144.551366097
144.291325691
144.031395733
143.769339982
143.503366949
143.232028494
142.95412876
142.668651508
142.374704701
142.071479552
141.758220955
141.434206529
141.098731873
140.751100235
140.390616101
140.016580136
139.628285725
139.225018359
138.806053723
138.370656958
137.918082432
137.447573701
136.958363634
136.449674687
135.920719334
135.370700575
134.798812539
134.204241178
133.586164987
132.943755843
132.276179851
131.582598288
130.86216874
130.11404664
129.337386568
128.531343968
127.695077039
126.827748809
125.928529533
124.996599352
124.031151277
123.03139467
121.996558438
120.925895976
119.818690125
118.674259409
117.491964926
116.271218811
115.011493281
113.7123335
112.373370769
110.994338135
109.57508923
108.115620846
106.616099302
105.076892114
103.498605531
101.882128657
100.228684108
98.5398881878
96.8178195193
95.0650958616
93.2849587355
91.4813658605
89.6590909659
87.8238295037
85.9823308188
84.142585934
82.314211553
80.5093577231
78.7435393713
77.0366137283
147.13678014
146.773608532
146.373866332
146.004998453
145.66748796
145.359475688
145.074188312
144.803549017
144.541232735
144.282614353
144.024277435
143.763691825
143.498958919
143.228612599
142.951477902
142.666573407
142.373043903
142.070114225
141.757057774
141.433175516
141.097781727
140.75019278
140.389724558
140.01568431
139.627371841
139.224076946
138.805078403
138.369643639
137.91702857
137.446477807
136.957225009
136.448493272
135.919495557
135.369435283
134.797507037
134.202897416
133.58478584
132.942345195
132.274742735
131.581141365
130.860700647
130.11257765
129.335929018
128.529912796
127.693690325
126.826428496
125.927302287
124.995497547
124.030214216
123.030670199
121.996103891
120.925780776
119.818998092
118.675091822
117.493444037
116.273492352
115.014741139
113.716772533
112.379261633
111.001993723
109.584884324
108.128002889
106.631600691
105.096143605
103.52235043
101.911237403
100.26416888
98.5829145468
96.8697118848
95.1273331108
93.359153736
91.5692201702
89.7623080626
87.9439671974
86.120558917
84.2992959106
82.4884726305
80.6984584493
78.9424566359
77.2390963071
147.686553277
147.032612784
146.480434296
146.0429526
145.67144496
145.34944023
145.060421078
144.790255214
144.529850344
144.273419695
144.017080009
143.758151023
143.494721902
143.225366716
142.948965328
142.664590091
142.371432686
142.068756686
141.755866201
141.432085779
141.096747232
140.749180264
140.38870586
140.014643761
139.626298534
139.222963225
138.803919152
138.368435604
137.915769977
137.445167858
136.955863618
136.447080966
135.918033425
135.367924975
134.795950718
134.201297419
133.583143679
132.94066357
132.273025262
131.579392218
130.85892472
130.11078172
129.334121852
128.528105288
127.691895951
126.824663852
125.925587737
124.993857914
124.028679665
123.029276479
121.994895678
120.924812033
119.818334214
118.674811942
117.493643741
116.274286535
115.016266977
113.719195585
112.382781085
111.006848481
109.591360233
108.136441084
106.642407091
105.109799378
103.539423019
101.93239131
100.290175429
98.6146588023
96.908194573
95.1736686611
93.4145543354
91.6349615585
89.83966287
88.0340860178
86.2242456437
84.4165255499
82.6175777254
80.8349445824
79.075719228
77.3485329321
148.681790891
147.323974784
146.533227598
146.033384392
145.642543927
145.318788212
145.034376747
144.769870949
144.514469165
144.26202513
144.008713211
143.752021116
143.490212714
143.222012049
142.946418799
142.662597859
142.369811013
142.067373777
141.754628931
141.430927851
141.095610864
140.748028571
140.387528931
140.013428532
139.625035712
139.221646889
138.802545034
138.366998432
137.914266131
137.443595242
136.954220739
136.445366657
135.916246812
135.366065472
134.794018107
134.19929241
133.581069786
132.938523374
132.270821401
131.577128193
130.856605122
130.108411736
129.331707655
128.525654465
127.689417815
126.822169816
125.923091806
124.991377209
124.026235013
123.02689335
121.992604417
120.922649399
119.816344638
118.673049089
117.49217254
116.273185919
115.015632938
113.719142723
112.383446777
111.008397331
109.59398904
108.140384299
106.647942688
105.117255159
103.549183355
101.944904113
100.305958674
98.6343042695
96.9323682365
95.2031247572
93.4501216117
91.6775272698
89.890146748
88.0933975687
86.2931759335
84.4953468075
82.7054374765
80.9282041648
79.1584511166
77.3665325933
150.474899415
147.546801426
146.433273029
145.906201718
145.539101474
145.244527793
144.983070008
144.734703917
144.490347904
144.245435144
143.997270829
143.744102327
143.484699593
143.218129055
142.943625965
142.66051907
142.368184614
142.066017988
141.753416636
141.429773048
141.09448205
140.746903559
140.386368624
140.012212014
139.623751607
139.220288241
138.80110815
138.365486364
137.912680649
137.441936577
136.952489135
136.443562518
135.914370628
135.364117772
134.791999429
134.197203028
133.578908834
132.936290948
132.268518267
131.574755461
130.854164208
130.105904694
129.329137276
128.523024351
127.686732527
126.81943506
125.920314636
124.9885663
124.023400823
123.024048705
121.989764808
120.919833736
119.813575832
118.670354756
117.489585953
116.270746893
115.013389066
113.717151745
112.381778073
111.007133937
109.593230135
108.140248162
106.648570163
105.11881355
103.551870681
101.948953545
100.311643535
98.6419484033
96.9423632806
95.2158950184
93.4661491244
91.6973629613
89.9144261
88.1228583146
86.3287086398
84.5384827334
82.7586141432
80.9939246553
79.2240585466
77.3243604014
57.2753532772
53.7236350665
51.3326595379
49.3761959127
47.7056206733
46.2506500844
44.9671451814
43.8252110088
42.8029781925
41.8835215469
41.0532939437
40.3011996083
39.6180007702
38.9959142198
38.4283174272
37.9095274278
37.4346275222
36.9993315389
36.5998753154
36.2329325722
35.8955472641
35.5850811748
35.2991713889
35.0356960243
34.7927450472
34.5685949989
34.3616879087
34.1706120495
33.9940858186
33.8309434954
33.680123201
33.5406558397
33.4116558372
33.2923113301
33.1818767101
33.0796653938
32.9850437667
32.8974273349
32.8162911661
32.7412252616
32.671910024
32.6078128206
32.5484853126
32.4935713536
32.4427410717
32.3956855717
32.3521178094
32.311771084
32.274397874
32.2397685274
32.2076699225
32.1779048228
32.1502890352
32.1246529289
32.1008392199
32.0787021393
32.0581056749
32.0389241742
32.0210410038
32.0043478683
31.9887444662
31.9741402757
31.9604506271
31.9475970847
31.9355065076
31.9241112627
31.9133494034
31.903163804
31.8935015401
31.8843138368
31.8755572208
31.8671929858
31.8591909925
31.8515149957
31.8441298799
31.8370060547
31.8301194014
31.8234464699
31.8169618701
31.8106458824
31.8044906196
31.7984842921
31.7925987289
31.78681844
31.7811283165
31.7755146157
31.7699683665
31.7644794416
31.7590379719
31.7536335839
31.748259415
31.7429098735
31.7375765638
31.7322516148
31.7269278468
31.7216002703
31.7162623554
31.7109073849
31.7055294502
31.7001237348
31.6946847256
31.6892048713
31.6836771732
31.6780961432
31.6724563079
31.6667503375
31.6609696697
31.6551062915
31.6491531639
31.6431012573
31.6369400623
31.6306601273
31.6242519128
31.6177029614
31.6109991673
31.6041288418
31.597078668
31.5898301438
31.5823645884
31.574665919
31.5667141315
31.5584853922
31.5499539703
31.5410949379
31.5318848901
31.5222968883
31.5122875529
31.5018173291
31.4908425403
31.4793205112
31.4671960269
31.454409425
31.4408860036
31.4265424961
31.4112714142
31.3949280961
31.3773332086
31.3582651829
31.3374253929
31.3143814426
31.2886876856
31.2596563671
31.2258508713
31.1854774651
31.1353961168
31.0713930622
30.9838417481
30.8561077388
30.6529580333
30.3097876026
29.726043211
28.7730041519
27.3212359391
25.2780421318
22.6130996816
19.3758607677
15.6781052655
11.4821893876
6.51218372546
1.53995450727
60.4570426935
56.4041979885
53.6927715139
51.5414917957
49.7411067528
48.1931001168
46.8390961639
45.6416689951
44.5744490964
43.6176291252
42.7557362984
41.9763431363
41.2692669865
40.626039551
40.0395323795
39.5036829816
39.0132845903
38.5638269889
38.1513690185
37.7724439956
37.423981417
37.1032499202
36.807808572
36.5354703575
36.2842697022
36.0524350998
35.838367727
35.6406188661
35.4578756605
35.2889434633
35.1327361164
34.9882627861
34.8546197894
34.7309811171
34.6165897226
34.510752633
34.4128321611
34.3222420972
34.2384353483
34.1608797453
34.0890163876
34.0225052203
33.9609703311
33.9040126047
33.8512855203
33.8024720288
33.7572784096
33.7154301692
33.676672014
33.6407673081
33.607495145
33.5766520178
33.5480489996
33.5215162862
33.4968842367
33.4739994592
33.4527203203
33.4329154103
33.4144646261
33.3972554202
33.3811892274
33.3661650172
33.3520947948
33.3388956837
33.3264929018
33.3148164419
33.3038009276
33.2933874698
33.283521483
33.274153617
33.2652352807
33.2567253162
33.2485784024
33.2407631916
33.2332492927
33.2260061081
33.2190053905
33.2122216989
33.2056364109
33.1992243453
33.192969171
33.1868476219
33.1808494994
33.1749611669
33.1691668665
33.1634565049
33.1578157914
33.1522405233
33.1467150845
33.1412330726
33.1357857773
33.1303659842
33.1249689626
33.1195803012
33.1142006093
33.1088177699
33.1034311666
33.0980292356
33.0926095872
33.0871661176
33.0816925776
33.0761829867
33.0706279893
33.0650253298
33.0593673377
33.053648343
33.0478580358
33.0419914046
33.0360389011
33.0299942141
33.0238445303
33.0175833137
33.0112001852
33.0046835371
32.9980187402
32.9911979708
32.9842058671
32.9770260602
32.9696422714
32.9620369012
32.9541968938
32.9460970353
32.9377154311
32.9290336589
32.9200308934
32.9106905098
32.9009697987
32.8908345212
32.8802527153
32.869182416
32.8575890612
32.8454181502
32.8326081249
32.8190949786
32.8047866475
32.7895590527
32.773259733
32.7556965498
32.7365984264
32.7156198586
32.6922001939
32.6656694725
32.6346255563
32.5969560105
32.548810611
32.4858452704
32.3949021015
32.2566880297
32.0303083389
31.6443161691
30.9919629422
29.9420257621
28.3689117686
26.1902381183
23.3876634761
20.0150918526
16.18220479
11.8659068705
6.80368182996
1.674216946
62.6648246093
58.7312773029
55.8647486301
53.5819907224
51.6816674597
50.0571840326
48.643338534
47.3979229963
46.2913232034
45.3015103124
44.4114621991
43.6076517351
42.8791020308
42.2167637546
41.6130764023
41.0616527937
40.5570377558
40.0945293232
39.6700355095
39.2799703899
38.9211667992
38.5908147401
38.2864079311
38.0057042488
37.7466915976
37.5075578741
37.2866694468
37.0825466679
36.8938494355
36.7193584732
36.5579652573
36.4086576058
36.2705109042
36.1426784803
36.0243820522
35.9149064139
35.8135903613
35.7198237431
35.6330455354
35.5527466131
35.478435979
35.409591052
35.3458395628
35.286836643
35.2322326609
35.1816972024
35.1349230882
35.0916241685
35.0515339257
35.0144070464
34.9800145824
34.9481447456
34.9185998209
34.891191842
34.8657551766
34.8421333834
34.8201797046
34.799758382
34.7807447906
34.7630207112
34.746476285
34.731015914
34.7165488247
34.7029891243
34.6902567642
34.6782782267
34.6669875249
34.6563234823
34.6462235574
34.6366377995
34.6275198367
34.6188292134
34.6105251205
34.6025740586
34.5949389353
34.587587156
34.5804909924
34.5736230953
34.5669629812
34.560484614
34.5541721669
34.5480061952
34.5419709045
34.5360504613
34.5302278036
34.5244933125
34.5188313482
34.5132368583
34.5076948202
34.5021987245
34.4967403476
34.4913098344
34.4859026999
34.4805051469
34.4751183711
34.4697297086
34.4643378894
34.4589329719
34.453512094
34.4480686763
34.4425962465
34.4370895797
34.4315396668
34.4259443515
34.4202959338
34.4145888379
34.4088136553
34.4029664082
34.3970367957
34.3910185399
34.3849009435
34.3786784303
34.372339217
34.3658726763
34.359266344
34.3525136636
34.3455997372
34.3385088505
34.3312269835
34.3237388463
34.3160310147
34.308080445
34.2998689448
34.291382914
34.2826024377
34.2735265463
34.2641107618
34.2543250706
34.2441473281
34.2335459515
34.2224945426
34.2109547093
34.1988788349
34.1862153407
34.1728924003
34.158813186
34.1438460717
34.127838405
34.1105496301
34.091629709
34.0706001312
34.0467092788
34.0185383075
33.9837234636
33.937984909
33.8751524755
33.7810219828
33.6319726264
33.3818875995
32.9529519076
32.2329886122
31.0891702925
29.4001839276
27.0932850226
24.1604048727
20.6581013402
16.6926815582
12.2549653046
7.09672470865
1.80695614591
64.4692701134
60.744681557
57.8414167283
55.4875014092
53.5191216666
51.8368087947
50.3752267021
49.090303039
47.9506030903
46.932641248
46.0182874184
45.1931874499
44.4457484606
43.7664620682
43.147422732
42.5819822554