/*--------------------------------*- C++ -*----------------------------------*\
| =========                 |                                                 |
| \\      /  F ield         | OpenFOAM: The Open Source CFD Toolbox           |
|  \\    /   O peration     | Version:  2106                                  |
|   \\  /    A nd           | Website:  www.openfoam.com                      |
|    \\/     M anipulation  |                                                 |
\*---------------------------------------------------------------------------*/
FoamFile
{
    version     2.0;
    format      ascii;
    arch        "LSB;label=32;scalar=64";
    class       surfaceScalarField;
    location    "0.175";
    object      phi;
}
// * * * * * * * * * * * * * * * * * * * * * * * * * * * * * * * * * * * * * //

dimensions      [0 3 -1 0 0 0 0];

oriented        oriented;

internalField   nonuniform List<scalar> 
22100
(
3.38461204745e-05
1.61538795245e-05
2.24572102262e-05
1.13889102556e-05
1.62585535495e-05
6.19865666938e-06
1.27977767405e-05
3.46077678501e-06
1.08046429952e-05
1.99313369955e-06
9.60459006934e-06
1.20005286488e-06
8.85132239252e-06
7.53267616058e-07
8.36435365758e-06
4.8696869293e-07
8.04433584604e-06
3.20017789164e-07
7.83284110594e-06
2.11494742613e-07
7.69339796828e-06
1.39443153602e-07
7.60224106311e-06
9.1156914672e-08
7.5434782167e-06
5.87628372864e-08
7.50634119109e-06
3.71369880337e-08
7.48350153724e-06
2.28395920116e-08
7.46998055357e-06
1.35209092502e-08
7.46241577294e-06
7.56470983689e-09
7.45854759979e-06
3.86811583862e-09
7.45682844531e-06
1.71912563025e-09
7.45642170894e-06
4.06735232686e-10
7.45677142076e-06
-3.49695399509e-10
7.45745748546e-06
-6.86048671096e-10
7.45821570955e-06
-7.58224185738e-10
7.45894089829e-06
-7.25216941217e-10
7.45958511947e-06
-6.44268402062e-10
7.46012901296e-06
-5.43942269411e-10
7.46057114488e-06
-4.42173636997e-10
7.46091997093e-06
-3.48857767101e-10
7.46118839259e-06
-2.68441995366e-10
7.46139048545e-06
-2.02103081921e-10
7.46153962453e-06
-1.4913670837e-10
7.46164751053e-06
-1.07883440504e-10
7.46172386717e-06
-7.6361199747e-11
7.46177684138e-06
-5.29886386177e-11
7.46181043383e-06
-3.36153386781e-11
7.4618296107e-06
-1.91934428497e-11
7.46183910528e-06
-9.48826117027e-12
7.46184235938e-06
-3.22675282635e-12
7.46184130105e-06
1.10008890707e-12
7.46183701975e-06
4.32401734536e-12
7.46183042054e-06
6.63697072381e-12
7.46182209225e-06
8.36089818255e-12
7.46181239424e-06
9.72291987792e-12
7.46180150303e-06
1.09030609632e-11
7.46178943993e-06
1.20570119533e-11
7.4617761154e-06
1.32986211227e-11
7.46176134854e-06
1.47318615297e-11
7.46174484548e-06
1.64813219394e-11
7.46172618038e-06
1.86882842645e-11
7.46170479362e-06
2.14533826693e-11
7.46168003127e-06
2.48377139e-11
7.46165114885e-06
2.89287249757e-11
7.46161730327e-06
3.38559675094e-11
7.46157757804e-06
3.97266606147e-11
7.46153105014e-06
4.65340207241e-11
7.46147688378e-06
5.41631345967e-11
7.46141438389e-06
6.24777763989e-11
7.46134328556e-06
7.10536105251e-11
7.46126428946e-06
7.89764452161e-11
7.46117976908e-06
8.45110208651e-11
7.46109565536e-06
8.40765007442e-11
7.46102436969e-06
7.12698597399e-11
7.46097416274e-06
5.02051906542e-11
7.46096351369e-06
1.06120445176e-11
7.46102825504e-06
-6.47724980911e-11
7.46122678365e-06
-1.98540566914e-10
7.46165379632e-06
-4.27055892824e-10
7.4624599133e-06
-8.06184704457e-10
7.46388150036e-06
-1.42164080776e-09
7.46627578585e-06
-2.3943188683e-09
7.47009433008e-06
-3.81858369997e-09
7.47655576043e-06
-6.46145396609e-09
7.48735724953e-06
-1.08014816619e-08
7.50559338084e-06
-1.82361893665e-08
7.53889513345e-06
-3.3301870464e-08
7.60834563862e-06
-6.94506216386e-08
7.77556131771e-06
-1.67215742213e-07
8.23200497475e-06
-4.56443524875e-07
9.7049631417e-06
-1.47295782556e-06
-5.47562863964e-06
1.51805920347e-05
5.02175949204e-05
1.59362845997e-05
4.42441117842e-05
1.73623933729e-05
3.77795017368e-05
1.26632666652e-05
3.26461443002e-05
8.59413413993e-06
2.8938092198e-05
5.70118570008e-06
2.63596218006e-05
3.77852316347e-06
2.45875173981e-05
2.52537194315e-06
2.3373475373e-05
1.70101068518e-06
2.25435263759e-05
1.14996677964e-06
2.19782177521e-05
7.7680336712e-07
2.15955152797e-05
5.22145613028e-07
2.1338738746e-05
3.47933399585e-07
2.11684972283e-05
2.29004274448e-07
2.10573395983e-05
1.48294509664e-07
2.09861516518e-05
9.40274176073e-08
2.09416792513e-05
5.79932057631e-08
2.0914797442e-05
3.44464488057e-08
2.08992983796e-05
1.93671526525e-08
2.08910747184e-05
9.94279626715e-09
2.08872745399e-05
4.20694182069e-09
2.08862056495e-05
7.19210406245e-10
2.08864514701e-05
-9.31882736302e-10
2.088732301e-05
-1.62982193227e-09
2.08884626311e-05
-1.86493029436e-09
2.08896361278e-05
-1.8178647852e-09
2.08907193585e-05
-1.62725773059e-09
2.08916572798e-05
-1.38014841897e-09
2.08924352188e-05
-1.1268151331e-09
2.08930609287e-05
-8.9414547443e-10
2.08935535906e-05
-6.94759826615e-10
2.08939379415e-05
-5.33485833944e-10
2.08942401802e-05
-4.10140265765e-10
2.08944518375e-05
-2.88064378132e-10
2.0894599611e-05
-2.00815232715e-10
2.089470071e-05
-1.34754355011e-10
2.08947668512e-05
-8.53515486297e-11
2.0894808109e-05
-5.07302171828e-11
2.08948326931e-05
-2.7764177099e-11
2.08948454293e-05
-1.15648944138e-11
2.08948492056e-05
6.3529297789e-13
2.08948464145e-05
9.51833880944e-12
2.0894838702e-05
1.6155171489e-11
2.08948271856e-05
2.13005049883e-11
2.0894812566e-05
2.55444089671e-11
2.08947952072e-05
2.93883636372e-11
2.08947752502e-05
3.31958460301e-11
2.08947526958e-05
3.72397881239e-11
2.08947274267e-05
4.17440649025e-11
2.08946992134e-05
4.69314507363e-11
2.08946677608e-05
5.29319925402e-11
2.08946328203e-05
5.98035882105e-11
2.08945942375e-05
6.75880918866e-11
2.08945519705e-05
7.62329028414e-11
2.08945062269e-05
8.55243651106e-11
2.08944577485e-05
9.49818334104e-11
2.08944082309e-05
1.0364393254e-10
2.08943608165e-05
1.09905708238e-10
2.08943210811e-05
1.10734226167e-10
2.08942984023e-05
1.01540245687e-10
2.08943078278e-05
7.50211984832e-11
2.08943753237e-05
1.65362983367e-11
2.08945502371e-05
-1.036769807e-10
2.08949006825e-05
-3.00248813304e-10
2.08955443733e-05
-6.33092700308e-10
2.0896595013e-05
-1.11541727246e-09
2.08982238913e-05
-1.82740125537e-09
2.09007904415e-05
-2.99360878212e-09
2.09048448216e-05
-4.86063467267e-09
2.09112601029e-05
-7.83702356214e-09
2.09214668582e-05
-1.26012016402e-08
2.09379678977e-05
-2.03197379318e-08
2.09649268083e-05
-3.34204986468e-08
2.10093196297e-05
-5.51945163622e-08
2.10843853316e-05
-9.33021137044e-08
2.12161792509e-05
-1.65095945091e-07
2.14578799169e-05
-3.11151372117e-07
2.19179552172e-05
-6.27291081681e-07
2.28097494519e-05
-1.34823813781e-06
2.4463967973e-05
-3.1271774256e-06
-7.07903243875e-06
2.60673721082e-05
5.35171053411e-05
1.24191792512e-05
5.29349683567e-05
1.79445303409e-05
4.96538401547e-05
1.59443948262e-05
4.58401814398e-05
1.24077927876e-05
4.24400923587e-05
9.10127469621e-06
3.97291723203e-05
6.48944312477e-06
3.76873057811e-05
4.56723842445e-06
3.61976629202e-05
3.1906535206e-06
3.51326122788e-05
2.21501742615e-06
3.43823672296e-05
1.52704842802e-06
3.38606262431e-05
1.04388659602e-06
3.35023459778e-05
7.06213631343e-07
3.32596010289e-05
4.71749156626e-07
3.30975906593e-05
3.10304786492e-07
3.29913345165e-05
2.00283460214e-07
3.292309258e-05
1.26235048332e-07
3.28804045964e-05
7.71343683281e-08
3.28546194591e-05
4.51522614877e-08
3.28397924064e-05
2.47698528862e-08
3.28318659667e-05
1.21333994336e-08
3.28279965882e-05
4.58860263793e-09
3.28269980677e-05
6.66231530398e-11
3.28271789656e-05
-1.81076543725e-09
3.28280275524e-05
-2.71358100148e-09
3.28291435615e-05
-2.93394338124e-09
3.28302911284e-05
-2.77488558436e-09
3.28313475182e-05
-2.43657876556e-09
3.28322584272e-05
-2.03774332265e-09
3.28330090102e-05
-1.64472614397e-09
3.28336053449e-05
-1.29109001286e-09
3.28340623871e-05
-9.90531526474e-10
3.28343979855e-05
-7.4575439721e-10
3.28346649506e-05
-5.55057687437e-10
3.2834881724e-05
-4.17619596392e-10
3.28350298516e-05
-2.82899743362e-10
3.28351298239e-05
-1.8531597638e-10
3.28351963945e-05
-1.17268470975e-10
3.28352389691e-05
-7.02893823504e-11
3.28352644567e-05
-3.69934293811e-11
3.28352767506e-05
-1.1596798534e-11
3.28352793962e-05
6.92801329356e-12
3.28352748754e-05
2.07156445379e-11
3.28352649872e-05
3.12032086113e-11
3.28352509429e-05
3.95717518448e-11
3.28352334863e-05
4.68042187309e-11
3.28352130883e-05
5.35587717348e-11
3.28351900672e-05
6.02777420569e-11
3.28351645992e-05
6.72821882342e-11
3.28351366782e-05
7.49305596895e-11
3.28351063289e-05
8.33216827414e-11
3.28350738375e-05
9.23002092189e-11
3.28350397701e-05
1.01673581246e-10
3.2835005069e-05
1.10965630081e-10
3.28349713539e-05
1.19250203215e-10
3.28349414314e-05
1.24875922595e-10
3.28349199237e-05
1.25094762707e-10
3.28349137111e-05
1.16100509187e-10
3.28349336119e-05
9.08205773096e-11
3.283499672e-05
3.83893791232e-11
3.28351321248e-05
-6.0385308032e-11
3.28353907327e-05
-2.42065871262e-10
3.28358599037e-05
-5.72875997449e-10
3.28365632666e-05
-1.00364130904e-09
3.28375867555e-05
-1.65661204862e-09
3.28391847586e-05
-2.71350885723e-09
3.28417399128e-05
-4.38265797874e-09
3.28457570704e-05
-7.01083353621e-09
3.28520532482e-05
-1.11568623284e-08
3.2861946812e-05
-1.7730644472e-08
3.28776121383e-05
-2.8266571504e-08
3.29027273196e-05
-4.5434917559e-08
3.29426735695e-05
-7.33667856869e-08
3.30073368635e-05
-1.19857892638e-07
3.31138003339e-05
-1.99765666611e-07
3.32912633208e-05
-3.42559004443e-07
3.35882740974e-05
-6.08162134324e-07
3.40765310776e-05
-1.11554796878e-06
3.48231743207e-05
-2.09488126908e-06
3.56930391348e-05
-3.99704261757e-06
-7.15789415441e-06
3.57719004357e-05
5.35105664549e-05
8.9086127895e-06
5.55742222337e-05
1.5880874545e-05
5.52424824977e-05
1.62761345247e-05
5.35977859043e-05
1.40524893204e-05
5.15418475816e-05
1.11572129417e-05
4.95802797524e-05
8.45101088381e-06
4.79243506875e-05
6.22316743797e-06
4.66181387949e-05
4.49686538074e-06
4.56304660015e-05
3.20269021006e-06
4.49051170754e-05
2.2523973514e-06
4.43840899046e-05
1.56491375143e-06
4.40166937573e-05
1.0736097411e-06
4.37619672441e-05
7.26475602171e-07
4.35882686037e-05
4.84003340521e-07
4.3471869209e-05
3.16682762168e-07
4.33953591182e-05
2.02745057138e-07
4.33461888533e-05
1.26304575953e-07
4.33154512988e-05
7.58897929022e-08
4.32969150366e-05
4.33061184276e-08
4.32862891067e-05
2.27593438961e-08
4.3280686423e-05
1.01912849174e-08
4.32778789125e-05
2.87410051061e-09
4.32770513519e-05
-9.83264936673e-10
4.32772695036e-05
-2.93180461722e-09
4.3277957375e-05
-3.62187977785e-09
4.32788208523e-05
-3.63840831128e-09
4.32796941705e-05
-3.30992177736e-09
4.32804922056e-05
-2.83579164102e-09
4.32811786026e-05
-2.33111968589e-09
4.32817451277e-05
-1.85760572434e-09
4.32821985965e-05
-1.4440051628e-09
4.32825517172e-05
-1.09889980754e-09
4.32828142885e-05
-8.17662569031e-10
4.32829907171e-05
-5.94079834546e-10
4.32831244249e-05
-4.16633349062e-10
4.32832111732e-05
-2.7207217601e-10
4.3283265631e-05
-1.7170390441e-10
4.32833061524e-05
-1.10758176211e-10
4.32833312908e-05
-6.20631951537e-11
4.32833439205e-05
-2.41599316981e-11
4.32833474784e-05
3.42661232827e-12
4.32833439069e-05
2.43303571245e-11
4.32833348777e-05
4.02534935079e-11
4.32833215496e-05
5.2897221044e-11
4.32833045651e-05
6.37721912433e-11
4.32832843501e-05
7.37653987754e-11
4.3283261226e-05
8.34187810709e-11
4.32832354488e-05
9.30911137631e-11
4.32832073942e-05
1.03015097134e-10
4.3283177564e-05
1.13187480498e-10
4.32831465359e-05
1.23362136274e-10
4.32831152467e-05
1.32986586253e-10
4.3283085125e-05
1.41099986059e-10
4.32830582554e-05
1.46129988866e-10
4.32830375697e-05
1.45553132965e-10
4.32830272551e-05
1.35348725956e-10
4.32830344963e-05
1.08792932849e-10
4.32830709477e-05
5.43170599005e-11
4.32831552366e-05
-4.59111693852e-11
4.32833077802e-05
-2.12876108568e-10
4.32835286538e-05
-4.62878921751e-10
4.32839531946e-05
-9.97441092563e-10
4.32846971707e-05
-1.74766782207e-09
4.32859229551e-05
-2.88242997554e-09
4.32878359143e-05
-4.62655214544e-09
4.32907849878e-05
-7.33180944554e-09
4.32953307594e-05
-1.15566415854e-08
4.33023544335e-05
-1.81805726373e-08
4.33132434902e-05
-2.86197276933e-08
4.3330166038e-05
-4.51891340772e-08
4.33564499788e-05
-7.17188752894e-08
4.33976976998e-05
-1.1461452594e-07
4.34628172624e-05
-1.84977468146e-07
4.35656316894e-05
-3.02580175121e-07
4.3726263756e-05
-5.03191171126e-07
4.39695817666e-05
-8.51480189768e-07
4.43126430669e-05
-1.45860917105e-06
4.47171570938e-05
-2.49939529509e-06
4.4942107815e-05
-4.22199357587e-06
-6.63348477891e-06
4.44176980995e-05
5.27351379875e-05
6.17347479804e-06
5.57309344158e-05
1.28850781036e-05
5.73114742104e-05
1.46955946937e-05
5.76109916561e-05
1.37529718176e-05
5.71335224402e-05
1.16346820876e-05
5.6319467906e-05
9.26506534888e-06
5.5448987776e-05
7.09364752074e-06
5.46629773022e-05
5.28287582818e-06
5.40136818592e-05
3.85198563843e-06
5.35061506686e-05
2.75992853322e-06
5.31242549017e-05
1.9468094989e-06
5.28449855107e-05
1.35287909089e-06
5.26454394164e-05
9.26021631434e-07
5.2505715327e-05
6.23727351052e-07
5.24097207247e-05
4.12677284292e-07
5.23450149042e-05
2.67450810186e-07
5.23022773032e-05
1.69042133943e-07
5.22746903926e-05
1.03476685336e-07
5.22573661202e-05
6.06303939077e-08
5.22468577003e-05
3.32677677696e-08
5.22407582277e-05
1.62907420068e-08
5.22374495384e-05
6.18274521472e-09
5.22359509739e-05
5.15229948229e-10
5.22354431185e-05
-2.42402473369e-09
5.22355081625e-05
-3.68698435472e-09
5.22358537429e-05
-3.98402690487e-09
5.22363081548e-05
-3.76434984542e-09
5.2236774762e-05
-3.30240467524e-09
5.22372024665e-05
-2.7588248597e-09
5.22375685459e-05
-2.22368239113e-09
5.22378662958e-05
-1.74176083284e-09
5.22380984796e-05
-1.33111005456e-09
5.22382753553e-05
-9.94580934536e-10
5.22384087939e-05
-7.27562093288e-10
5.22385096419e-05
-5.17510414103e-10
5.22385941778e-05
-3.56612021729e-10
5.22386604872e-05
-2.37984251946e-10
5.22387030286e-05
-1.53241599485e-10
5.22387365213e-05
-9.54852035734e-11
5.22387523925e-05
-3.99639789521e-11
5.22387579581e-05
-2.09041675427e-12
5.22387557947e-05
2.65155096887e-11
5.22387478568e-05
4.81855866991e-11
5.22387354385e-05
6.52933447992e-11
5.22387194276e-05
7.9768348056e-11
5.22387004213e-05
9.27728627132e-11
5.2238678969e-05
1.04875693707e-10
5.2238656037e-05
1.16023550207e-10
5.22386310388e-05
1.28028932971e-10
5.22386034982e-05
1.40780995622e-10
5.22385747274e-05
1.52206053754e-10
5.22385457362e-05
1.6204325922e-10
5.2238517985e-05
1.68889773761e-10
5.22384937641e-05
1.70362117725e-10
5.22384771816e-05
1.62144613721e-10
5.22384784525e-05
1.34076537676e-10
5.22385039567e-05
8.32464661021e-11
5.22385682843e-05
-1.00783552631e-11
5.22386806718e-05
-1.58305656583e-10
5.22388576039e-05
-3.89779208035e-10
5.22391804662e-05
-7.85683548743e-10
5.22396770496e-05
-1.49401873231e-09
5.22404239477e-05
-2.49460093754e-09
5.22415532238e-05
-4.01174399734e-09
5.2243267702e-05
-6.34109258598e-09
5.22458689255e-05
-9.93310429908e-09
5.22498092571e-05
-1.54970304765e-08
5.2255780969e-05
-2.41523356013e-08
5.22648460601e-05
-3.76848671938e-08
5.22786289802e-05
-5.89720864822e-08
5.22996014037e-05
-9.26913149735e-08
5.23315018408e-05
-1.46514959529e-07
5.23797143871e-05
-2.33190034647e-07
5.24512334875e-05
-3.74099385544e-07
5.25530288489e-05
-6.04986717769e-07
5.26857899584e-05
-9.84241384997e-07
5.28274305181e-05
-1.60024964128e-06
5.28964299986e-05
-2.56839466361e-06
5.26796561184e-05
-4.0052197277e-06
-5.82390000142e-06
5.18700710362e-05
5.1983486454e-05
4.18998834096e-06
5.50586639436e-05
9.80990060665e-06
5.76386131344e-05
1.21156454693e-05
5.93259030111e-05
1.2065681884e-05
6.02280149638e-05
1.07325700663e-05
6.05929260642e-05
8.90015417624e-06
6.06482829169e-05
7.03829061191e-06
6.05531884131e-05
5.37797029836e-06
6.04029538065e-05
4.00222021963e-06
6.02479132774e-05
2.91496904102e-06
6.01107877215e-05
2.08393502333e-06
5.999902816e-05
1.4646386025e-06
5.99125129319e-05
1.01253679146e-06
5.9847920976e-05
6.88319227322e-07
5.98010173435e-05
4.59580840018e-07
5.97677326357e-05
3.00735455281e-07
5.97445912406e-05
1.9218348679e-07
5.97288126761e-05
1.1925522878e-07
5.97182645213e-05
7.1178534953e-08
5.97113583253e-05
4.01739422051e-08
5.97069389655e-05
2.07100618966e-08
5.97042050501e-05
8.91659860377e-09
5.97025959903e-05
2.12421500617e-09
5.97016914478e-05
-1.51955325984e-09
5.97012331656e-05
-3.22875739054e-09
5.97010436857e-05
-3.79458486577e-09
5.970100748e-05
-3.72816068743e-09
5.97010518878e-05
-3.34681127967e-09
5.97011331737e-05
-2.84011256761e-09
5.97012256599e-05
-2.31618059936e-09
5.97013154588e-05
-1.83157873115e-09
5.9701395941e-05
-1.41162037789e-09
5.97014656494e-05
-1.0643300039e-09
5.97015252006e-05
-7.87163246144e-10
5.97015754207e-05
-5.67766011146e-10
5.97016153159e-05
-3.96500507422e-10
5.97016433351e-05
-2.65953560574e-10
5.97016591911e-05
-1.69027614369e-10
5.97016578549e-05
-9.40747641908e-11
5.97016495913e-05
-3.16327036814e-11
5.97016429104e-05
4.64761887622e-12
5.97016335538e-05
3.59143023447e-11
5.97016228016e-05
5.89459076566e-11
5.97016108664e-05
7.72168599181e-11
5.97015965994e-05
9.40303531778e-11
5.97015797709e-05
1.09609939892e-10
5.97015603069e-05
1.24349661666e-10
5.9701537849e-05
1.38500442109e-10
5.97015138532e-05
1.52072795146e-10
5.97014899383e-05
1.64761995886e-10
5.97014663285e-05
1.75883307248e-10
5.97014442624e-05
1.84158598471e-10
5.97014254709e-05
1.8767350638e-10
5.97014119196e-05
1.83864394786e-10
5.97014044327e-05
1.69612460202e-10
5.97013966821e-05
1.41825386107e-10
5.97013933263e-05
8.660417295e-11
5.97014027018e-05
-1.94899110406e-11
5.97014587408e-05
-2.14340353444e-10
5.97016301174e-05
-5.61152560171e-10
5.97019141087e-05
-1.0696394599e-09
5.97022809552e-05
-1.86086447867e-09
5.97028325477e-05
-3.04623622933e-09
5.9703652117e-05
-4.83133858821e-09
5.97048524695e-05
-7.54145970761e-09
5.97065974493e-05
-1.16781001346e-08
5.9709124125e-05
-1.80237415594e-08
5.97127750015e-05
-2.78032797035e-08
5.97180387591e-05
-4.29487097292e-08
5.97255966864e-05
-6.65300619986e-08
5.97363541107e-05
-1.03448742889e-07
5.97513766433e-05
-1.61537523297e-07
5.97715101724e-05
-2.53323635042e-07
5.9796176404e-05
-3.98765778915e-07
5.98202297945e-05
-6.29040334727e-07
5.98267787049e-05
-9.90790393969e-07
5.97736652402e-05
-1.54713615808e-06
5.9572577641e-05
-2.36730711758e-06
5.90646876439e-05
-3.4973296303e-06
-4.84682028992e-06
5.80876078271e-05
5.14373053569e-05
2.75268298252e-06
5.42658205469e-05
6.981385417e-06
5.7249643162e-05
9.13182283192e-06
5.97900274312e-05
9.5252975631e-06
6.17201278183e-05
8.80246961169e-06
6.30883026591e-05
7.5319792683e-06
6.40167161272e-05
6.10987708679e-06
6.46292358576e-05
4.76545052819e-06
6.50258027669e-05
3.60565328071e-06
6.52790773039e-05
2.66169447491e-06
6.5438972314e-05
1.92403997527e-06
6.55386891014e-05
1.36492176688e-06
6.55999275915e-05
9.51298242411e-07
6.56367423603e-05
6.51504394939e-07
6.56581934223e-05
4.38129715902e-07
6.56701016236e-05
2.88827202011e-07
6.56761908617e-05
1.86094213717e-07
6.56788271862e-05
1.16618881397e-07
6.56794976472e-05
7.05080502673e-08
6.5679121453e-05
4.05500997216e-08
6.56782540445e-05
2.15774154527e-08
6.56772230845e-05
9.94748992929e-09
6.56762137642e-05
3.13346439839e-09
6.56753044085e-05
-6.10260323841e-10
6.56745356108e-05
-2.46000694139e-09
6.56739071383e-05
-3.16614273256e-09
6.56734081142e-05
-3.22915055027e-09
6.56730210725e-05
-2.9597653097e-09
6.56727270139e-05
-2.54604928431e-09
6.56725077634e-05
-2.09694256777e-09
6.56723472091e-05
-1.67104954379e-09
6.56722316791e-05
-1.29612672669e-09
6.56721490793e-05
-9.8177563464e-10
6.56720887952e-05
-7.26923429835e-10
6.56720450458e-05
-5.24040501249e-10
6.56720136279e-05
-3.650650599e-10
6.56719885151e-05
-2.4078894904e-10
6.56719667618e-05
-1.47213782308e-10
6.56719510351e-05
-7.8298708061e-11
6.56719488939e-05
-2.9457208752e-11
6.56719471678e-05
6.40297827538e-12
6.56719396207e-05
4.34822111583e-11
6.56719292532e-05
6.93175127892e-11
6.56719162552e-05
9.02050135074e-11
6.56719015994e-05
1.08680519215e-10
6.56718853189e-05
1.25899324353e-10
6.56718672477e-05
1.42459928097e-10
6.56718472887e-05
1.58528537734e-10
6.56718262628e-05
1.73186418366e-10
6.56718057168e-05
1.85392393671e-10
6.56717844783e-05
1.97189301348e-10
6.56717631312e-05
2.05525020287e-10
6.56717427356e-05
2.08043873899e-10
6.56717249883e-05
2.01599666893e-10
6.56717129341e-05
1.81662670781e-10
6.56717128575e-05
1.41879854173e-10
6.56717225991e-05
7.68655908818e-11
6.56717358061e-05
-3.27198770161e-11
6.56718001335e-05
-2.78657731311e-10
6.56718843446e-05
-6.45392161818e-10
6.56720179524e-05
-1.20317166639e-09
6.56722069697e-05
-2.04983297116e-09
6.56724662256e-05
-3.30553315361e-09
6.56728112485e-05
-5.17644153161e-09
6.56732513384e-05
-7.98161024251e-09
6.56737819821e-05
-1.22087774886e-08
6.56743708425e-05
-1.86126444396e-08
6.56749277311e-05
-2.83602273585e-08
6.56752457264e-05
-4.32667664059e-08
6.56748903906e-05
-6.6174762595e-08
6.5672986436e-05
-1.0154480887e-07
6.5667779452e-05
-1.56330621047e-07
6.56557078302e-05
-2.41252118517e-07
6.56295991018e-05
-3.72657251546e-07
6.55752211456e-05
-5.74662571056e-07
6.5465183005e-05
-8.80752300331e-07
6.52500025094e-05
-1.33195559485e-06
6.48490151425e-05
-1.96631977421e-06
6.41485999287e-05
-2.79691437399e-06
-3.75481229534e-06
6.30565919547e-05
5.10850423514e-05
1.66764063263e-06
5.36118445391e-05
4.45458323086e-06
5.66873164198e-05
6.0563509328e-06
5.9689446363e-05
6.52316757432e-06
6.22997268866e-05
6.19218902043e-06
6.4413688367e-05
5.41801771848e-06
6.60471844443e-05
4.47638094749e-06
6.72686159535e-05
3.54401896986e-06
6.81598949826e-05
2.71437421314e-06
6.87977616001e-05
2.02382781935e-06
6.92467460181e-05
1.47505551541e-06
6.95579649113e-05
1.05370282435e-06
6.9770431665e-05
7.38831433721e-07
6.99131748306e-05
5.08761170695e-07
7.00073860808e-05
3.43918413453e-07
7.00682958319e-05
2.27917409675e-07
7.01066980855e-05
1.47691927411e-07
7.01301406308e-05
9.31763087543e-08
7.01438299895e-05
5.68186611696e-08
7.01513062908e-05
3.30737548346e-08
7.0154938917e-05
1.79447319684e-08
7.01562867843e-05
8.59955733113e-09
7.01563586751e-05
3.06150728079e-09
7.01557666498e-05
-1.8294134258e-11
7.01549056538e-05
-1.59905478389e-09
7.01539818825e-05
-2.24239216546e-09
7.01531130182e-05
-2.36029473088e-09
7.01523527147e-05
-2.19946280226e-09
7.01517181747e-05
-1.91150679169e-09
7.01512065411e-05
-1.58531380338e-09
7.01508048868e-05
-1.26941767076e-09
7.01504962678e-05
-9.87550341247e-10
7.01502630727e-05
-7.4863233008e-10
7.01500891575e-05
-5.53044249187e-10
7.01499615411e-05
-3.96422099362e-10
7.01498695577e-05
-2.73044185225e-10
7.01498060587e-05
-1.77232416807e-10
7.01497636844e-05
-1.04781427058e-10
7.01497345778e-05
-4.91439581365e-11
7.01497042499e-05
9.08076632416e-13
7.01496800173e-05
3.0658391533e-11
7.01496661789e-05
5.73253709092e-11
7.0149655031e-05
8.04564615331e-11
7.01496445151e-05
1.00710087012e-10
7.01496338535e-05
1.19339496046e-10
7.01496226566e-05
1.37120707137e-10
7.01496107753e-05
1.54413401312e-10
7.01495982004e-05
1.71196208266e-10
7.01495843423e-05
1.87124496227e-10
7.01495681624e-05
2.01622488414e-10
7.01495515504e-05
2.13795753957e-10
7.01495351465e-05
2.21865315686e-10
7.01495197201e-05
2.23433189618e-10
7.01495059892e-05
2.15347959874e-10
7.01494939143e-05
1.93748632011e-10
7.01494814391e-05
1.54336820948e-10
7.01494654904e-05
9.27970993587e-11
7.01494591544e-05
-2.63869504512e-11
7.01494532035e-05
-2.72650144907e-10
7.01494634397e-05
-6.55645373788e-10
7.01494727103e-05
-1.212439211e-09
7.01494572074e-05
-2.03430180258e-09
7.01493884325e-05
-3.23677071203e-09
7.01492116962e-05
-4.9997430706e-09
7.01488257188e-05
-7.59566997724e-09
7.01480521127e-05
-1.14352196398e-08
7.01465864731e-05
-1.71470720822e-08
7.01439089714e-05
-2.56827731591e-08
7.01391338165e-05
-3.84916367507e-08
7.01307653388e-05
-5.78063126803e-08
7.0116301633e-05
-8.70811582752e-08
7.00915406127e-05
-1.31569689797e-07
7.00493309983e-05
-1.99042606213e-07
6.99776033333e-05
-3.00929693077e-07
6.98562305646e-05
-4.53289988458e-07
6.96524944405e-05
-6.7701627462e-07
6.93160162961e-05
-9.95477404266e-07
6.87764689872e-05
-1.42677235327e-06
6.79500175228e-05
-1.97046296096e-06
-2.58152282304e-06
6.67767280178e-05
5.08804131904e-05
7.87227452724e-07
5.31704661736e-05
2.16453025546e-06
5.62177496939e-05
3.00906739446e-06
5.94382696332e-05
3.30264759265e-06
6.2444969366e-05
3.18548922493e-06
6.50382526944e-05
2.82473431999e-06
6.71548661815e-05
2.35976739227e-06
6.88135646087e-05
1.88532048581e-06
7.00731705563e-05
1.45476821863e-06
7.10056674759e-05
1.09133086021e-06
7.16812637287e-05
7.99459224991e-07
7.21614230467e-05
5.73543466858e-07
7.24966039353e-05
4.03650500949e-07
7.27264804505e-05
2.78884608723e-07
7.28812793139e-05
1.89119507708e-07
7.29834690386e-05
1.25727650124e-07
7.30494127898e-05
8.17481451141e-08
7.30908148558e-05
5.1774211771e-08
7.31159087337e-05
3.17247481779e-08
7.31303931406e-05
1.8589303898e-08
7.31381476882e-05
1.01901317476e-08
7.31417678855e-05
4.97930235653e-09
7.31429552951e-05
1.8740397941e-09
7.31428084501e-05
1.28500042785e-10
7.31419847582e-05
-7.75400660627e-10
7.31409012816e-05
-1.1589303566e-09
7.31397857464e-05
-1.24475799601e-09
7.3138757548e-05
-1.17126266174e-09
7.313786914e-05
-1.02310435906e-09
7.31371344413e-05
-8.50623576929e-10
7.31365460739e-05
-6.81070437626e-10
7.31360866597e-05
-5.28180357327e-10
7.31357353583e-05
-3.97386599992e-10
7.31354715809e-05
-2.89298264941e-10
7.31352770104e-05
-2.01839608178e-10
7.31351360245e-05
-1.3201746386e-10
7.31350354116e-05
-7.65768012322e-11
7.31349627415e-05
-3.20780240967e-11
7.31349081932e-05
5.44648750065e-12
7.31348773785e-05
3.17671285135e-11
7.31348533462e-05
5.47219263652e-11
7.31348355878e-05
7.50839515708e-11
7.31348223252e-05
9.37017959202e-11
7.31348117718e-05
1.11246777044e-10
7.31348026663e-05
1.284538683e-10
7.31347941176e-05
1.45724802917e-10
7.31347854716e-05
1.63149107482e-10
7.31347762406e-05
1.8051018224e-10
7.31347661348e-05
1.97286419203e-10
7.31347550644e-05
2.12705570919e-10
7.31347430415e-05
2.25773068923e-10
7.31347301084e-05
2.34741324564e-10
7.31347163341e-05
2.37186316874e-10
7.3134701808e-05
2.29893116862e-10
7.31346867001e-05
2.08844358095e-10
7.31346716513e-05
1.69374608488e-10
7.31346574855e-05
1.06942526021e-10
7.31346296577e-05
1.44520213615e-12
7.31345833998e-05
-2.26257475004e-10
7.31345091502e-05
-5.81349232901e-10
7.31343844181e-05
-1.08774190933e-09
7.31341657177e-05
-1.81567806896e-09
7.31337834833e-05
-2.85463615225e-09
7.31331211045e-05
-4.33741377589e-09
7.31319825101e-05
-6.45709338883e-09
7.31300416462e-05
-9.49440392154e-09
7.31267700507e-05
-1.38755374746e-08
7.31212999216e-05
-2.02126657947e-08
7.3112201948e-05
-2.93936481064e-08
7.30971526709e-05
-4.27570568293e-08
7.30724272536e-05
-6.23557998663e-08
7.30320576717e-05
-9.12002028374e-08
7.29664412039e-05
-1.33426217988e-07
7.28604226076e-05
-1.94911173075e-07
7.26906097391e-05
-2.8347727951e-07
7.24221364739e-05
-4.08543086095e-07
7.20060571433e-05
-5.79398148501e-07
7.13802666584e-05
-8.00981737179e-07
7.04778642825e-05
-1.06806063723e-06
-1.3560234817e-06
6.92523648073e-05
5.07871726028e-05
5.48635418627e-11
5.29516498593e-05
5.30118991777e-11
5.59606884393e-05
2.87989130891e-11
5.92633218286e-05
1.41594615582e-11
6.24488082848e-05
2.70504552165e-12
6.52735486888e-05
-6.15432329224e-12
6.76333280665e-05
-1.20554472582e-11
6.95186634842e-05
-1.49932328953e-11
7.09734470666e-05
-1.54160812437e-11
7.20647918076e-05
-1.3923255859e-11
7.28642621424e-05
-1.11493488799e-11
7.34378133155e-05
-7.74655459572e-12
7.38414681511e-05
-4.37229042843e-12
7.41203543947e-05
-1.67002529779e-12
7.43094740915e-05
-2.22302218024e-13
7.44352021465e-05
-4.34600825243e-13
7.45169528209e-05
-2.55860920381e-12
7.4568733354e-05
-6.35449975251e-12
7.46004692505e-05
-1.11853010417e-11
7.46190745818e-05
-1.60704649237e-11
7.46292845436e-05
-1.9881765344e-11
7.46342853151e-05
-2.15266877149e-11
7.46361798411e-05
-2.05444025026e-11
7.46363265106e-05
-1.82146288628e-11
7.46355667523e-05
-1.56703522571e-11
7.46344203188e-05
-1.25072342692e-11
7.46331844638e-05
-8.90027260218e-12
7.46320181248e-05
-4.92075872372e-12
7.46309951046e-05
-9.1616400335e-14
7.46301404996e-05
3.96457604774e-12
7.46294507963e-05
8.60578308345e-12
7.46289090248e-05
1.35524300668e-11
7.46284928194e-05
1.87792324151e-11
7.46281791352e-05
2.43734773225e-11
7.46279467902e-05
3.05305085912e-11
7.46277774437e-05
3.73701059949e-11
7.46276559199e-05
4.49722461538e-11
7.46275705092e-05
5.33368921866e-11
7.46275134422e-05
6.25274382298e-11
7.46274731386e-05
7.21000506537e-11
7.46274458293e-05
8.20540003531e-11
7.46274276324e-05
9.32832790994e-11
7.46274155894e-05
1.05736475973e-10
7.46274074839e-05
1.19358125133e-10
7.46274017869e-05
1.34203728804e-10
7.46273974181e-05
1.50203058675e-10
7.46273935835e-05
1.67104114918e-10
7.46273896911e-05
1.84483766084e-10
7.46273852724e-05
2.01730611891e-10
7.4627379943e-05
2.17988048485e-10
7.46273735157e-05
2.32131535677e-10
7.46273657716e-05
2.42446678438e-10
7.46273563359e-05
2.46614474593e-10
7.46273445881e-05
2.416722455e-10
7.46273293433e-05
2.24042476258e-10
7.4627309106e-05
1.89625984984e-10
7.4627282106e-05
1.33987473361e-10
7.46272392085e-05
4.4385392516e-11
7.4627144759e-05
-1.31752317901e-10
7.46270068e-05
-4.4337327873e-10
7.46267790284e-05
-8.59993430433e-10
7.46264015111e-05
-1.43822311914e-09
7.46257768955e-05
-2.23012243824e-09
7.46247469509e-05
-3.30755130071e-09
7.46230528369e-05
-4.76306102274e-09
7.46202733817e-05
-6.71502123793e-09
7.46157453796e-05
-9.34755392844e-09
7.46083929052e-05
-1.28601586981e-08
7.45964577606e-05
-1.74584640865e-08
7.45771181937e-05
-2.34175114161e-08
7.45459650163e-05
-3.12026772534e-08
7.44961565206e-05
-4.13917763456e-08
7.44168627464e-05
-5.41324908718e-08
7.42915338059e-05
-6.95822790896e-08
7.4095540897e-05
-8.74845833457e-08
7.37936676774e-05
-1.06669910679e-07
7.33386279958e-05
-1.24358537541e-07
7.26730047098e-05
-1.35358402738e-07
7.17374068024e-05
-1.32462760029e-07
-1.07120896015e-07
7.04885040804e-05
5.07871715729e-05
-7.87116696896e-07