/*--------------------------------*- C++ -*----------------------------------*\
| =========                 |                                                 |
| \\      /  F ield         | OpenFOAM: The Open Source CFD Toolbox           |
|  \\    /   O peration     | Version:  2106                                  |
|   \\  /    A nd           | Website:  www.openfoam.com                      |
|    \\/     M anipulation  |                                                 |
\*---------------------------------------------------------------------------*/
FoamFile
{
    version     2.0;
    format      ascii;
    arch        "LSB;label=32;scalar=64";
    class       volScalarField;
    location    "0.245";
    object      p;
}
// * * * * * * * * * * * * * * * * * * * * * * * * * * * * * * * * * * * * * //

dimensions      [0 2 -2 0 0 0 0];

internalField   nonuniform List<scalar> 
11200
(
150.313203692
147.384601454
146.270749079
145.743415442
145.376082542
145.081300265
144.819651887
144.571108185
144.326583885
144.081509308
143.833187288
143.579863117
143.320304773
143.053576666
142.77891193
142.49563716
142.203126561
141.900774178
141.587981225
141.264159581
140.928685552
140.580910147
140.220175055
139.845812446
139.457136761
139.053446705
138.634026084
138.198144488
137.745058022
137.274009938
136.784231205
136.274941019
135.745346934
135.19464508
134.622020844
134.026650031
133.407698714
132.764323427
132.095671589
131.400881923
130.679084778
129.92940234
129.150948823
128.342830541
127.504145857
126.633984951
125.731429363
124.79555126
123.825412332
122.820062235
121.778536461
120.699853481
119.583011023
118.426981269
117.2307047
115.993082263
114.712965436
113.389143732
112.020328887
110.605134986
109.142053446
107.62942145
106.065381654
104.44783347
102.774366975
101.042177035
99.2479532171
97.3877354762
95.4567196379
93.4489909263
91.3571601735
89.1718677224
86.8809153062
84.4681165475
81.9113859848
79.1790645678
76.2235543153
72.9722839357
69.2715500189
64.5082953921
148.520162016
147.161987398
146.371014374
145.870997634
145.480006197
145.156119724
144.871593921
144.606986276
144.351492277
144.098963495
143.845572596
143.588805972
143.326926561
143.058657885
142.782999506
142.499116613
142.206271827
141.90378235
141.590989773
141.267232285
140.931859708
140.584196601
140.223599281
139.849399624
139.460901646
139.057398329
138.638170645
138.202486358
137.749600284
137.27875469
136.789179549
136.280092498
135.750699226
135.200199517
134.627780709
134.03261862
133.413879053
132.770718495
132.10228438
131.407715509
130.686142375
129.936687384
129.158465064
128.350582162
127.51213761
126.642222327
125.739918804
124.804300416
123.834430381
122.829360267
121.788127947
120.70975485
119.593242384
118.437567307
117.241675788
116.004475838
114.724827704
113.401531767
112.03331326
110.618803161
109.156514377
107.644811728
106.081871553
104.465631015
102.793722555
101.063405306
99.271463834
97.4140607675
95.4865566935
93.4832668683
91.397122414
89.2191670095
86.9378529337
84.5380443214
81.999345916
79.2932493956
76.3789563875
73.1986315517
69.6494817102
65.536628452
147.524971881
146.870770937
146.318413657
145.880793497
145.509166517
145.187060874
144.89795638
144.627717143
144.367248137
144.110760472
143.854369142
143.595392428
143.331918268
143.062519683
142.786075595
142.501657391
142.208455457
141.905731229
141.592786445
141.268944283
140.933542707
140.585942162
140.225398673
139.851258596
139.46282985
139.059402861
138.640256303
138.204656856
137.751859031
137.281105324
136.791626581
136.282642698
135.753362767
135.202979395
134.630674826
134.035627269
133.417003664
132.773961019
132.105647618
131.411203096
130.689758806
129.94043808
129.162356545
128.354622253
127.516335707
126.646589737
125.744469163
124.809050212
123.839399596
122.834573176
121.793614098
120.715550253
119.599390957
118.44412265
117.248703337
116.012055486
114.733057043
113.410530229
112.043227243
110.629812271
109.16883833
107.658718586
106.097689269
104.483781313
102.814757529
101.088024509
99.3005405214
97.4487069844
95.5282097781
93.5338103548
91.459059111
89.2958932392
87.0342178148
84.6611169346
82.159869452
79.5086148111
76.6793784268
73.6405427946
70.3561270811
66.803104304
146.975210777
146.611828902
146.211929299
145.842936352
145.505316236
145.197209485
144.911840982
144.641131052
144.378752313
144.120077773
143.861689384
143.60105559
143.336276548
143.065884981
142.788704815
142.50375354
142.210174853
141.907192589
141.594079648
141.270136146
140.934671187
140.586994641
140.226465328
139.852360116
139.463968303
139.06058219
138.641480207
138.2059278
137.753178357
137.282473357
136.793042478
136.284103816
135.754864733
135.204523559
134.632270168
134.037279048
133.418718115
132.77574513
132.107507396
131.413145008
130.691790118
129.942567073
129.164592942
128.356977641
127.518824009
126.649227773
125.747277325
124.812053274
123.842627687
122.838062906
121.797409902
120.719706123
119.603972597
118.449210101
117.254394265
116.018469406
114.740340581
113.418863257
112.052830555
110.640956946
109.181860831
107.674045238
106.115848706
104.50541247
102.840634966
101.119117446
99.3380846302
97.4942845072
95.5838640665
93.6022134687
91.5437757659
89.40182156
87.1681191855
84.8326266631
82.3832548949
79.8059053612
77.0858320393
74.2133266809
71.191985489
68.0589852255
146.641162928
146.40936691
146.107952916
145.79697329
145.492130254
145.200102418
144.92112154
144.651989369
144.389022295
144.128930169
143.868952571
143.606852076
143.340836159
143.069455747
142.791514153
142.50599442
142.212003936
141.908733513
141.595427868
141.271364433
140.935838368
140.588153389
140.227613179
139.853507166
139.46513822
139.061790025
138.64273578
138.207238517
137.754550279
137.283911987
136.794553408
136.285693316
135.756539574
135.206288859
134.634127283
134.039231168
133.420765996
132.77788972
132.109752964
131.415496254
130.694254236
129.945153583
129.16731381
128.359847618
127.52186111
126.652453869
125.750718915
124.815742444
123.846603246
122.842371955
121.802110056
120.724867636
119.609681106
118.455570029
117.261532905
116.02654148
114.749532962
113.429403867
112.064996734
110.655091746
109.1983867
107.693469239
106.138802789
104.53269272
102.873245445
101.158319128
99.3854663002
97.5518650649
95.6542359442
93.6887447913
91.6508949461
89.5354218628
87.3362171036
85.0463619337
82.6584355257
80.1654285177
77.5631441476
74.856024391
72.0654289009
69.2420535961
146.437770533
146.261867955
146.020671648
145.753343397
145.476153019
145.199510405
144.927815502
144.66130779
144.39853572
144.137519214
143.876223363
143.61278112
143.345567026
143.07319026
142.794457939
142.508332381
142.213891563
141.910296111
141.596763321
141.272547432
140.936925086
140.58918444
140.228616124
139.85451043
139.466156803
139.062834508
138.643814093
138.208356545
137.755712403
137.285121338
136.795812129
136.287002716
135.757900396
135.207701975
134.635594201
134.040754419
133.422351172
132.779544218
132.11148485
131.417317448
130.696177522
129.947192465
129.169483882
128.36216704
127.524351455
126.655141264
125.753635126
124.818926142
123.850101636
122.846242523
121.806422135
120.729705363
119.615146667
118.461787606
117.268653678
116.034750617
114.759060455
113.44053073
112.078070514
110.670531422
109.216697061
107.715274741
106.164881143
104.564000309
102.910965209
101.203926046
99.4408120081
97.6192895062
95.7367187006
93.7901139154
91.7761191406
89.6910228327
87.5308587988
85.2916859153
82.970219436
80.5651078799
78.0794192717
75.5253087268
72.9297259324
70.339769835
146.314653833
146.159045715
145.952742447
145.716178056
145.460699809
145.197416532
144.932798791
144.66928493
144.407145722
144.145553333
143.883173741
143.618530449
143.350193698
143.076854959
142.797342079
142.5106075
142.215706315
141.911772714
141.597998707
141.273616417
140.937884055
140.590075227
140.229471128
139.855354243
139.467005728
139.063699877
138.644704386
138.209278056
137.756669912
137.286118768
136.796853017
136.288090572
135.759038983
135.208895799
134.636848971
134.042076748
133.42374809
132.781023576
132.113055404
131.418987163
130.697954264
129.949087928
129.171514173
128.364352584
127.526717446
126.657718184
125.756459845
124.822043321
123.853565377
122.850118397
121.810789812
120.73466188
119.620810266
118.468302367
117.276195017
116.043531113
114.769335144
113.452611731
112.092336521
110.687448232
109.236846174
107.739370536
106.19379224
104.598798816
102.95297855
101.254802279
99.5026057368
97.6945751858
95.8287410256
93.9029889756
91.9151049563
89.8628830425
87.7443441298
85.5581559652
83.3043877872
80.9857977378
78.6099360075
76.1924028506
73.7600769218
71.3523179158
146.240574225
146.090563656
145.903806695
145.687699253
145.447990431
145.195165765
144.936524581
144.675781665
144.414409591
144.152481962
143.889257928
143.62361407
143.354309888
143.08012416
142.799913391
142.512627755
142.217305776
141.913060144
141.599061337
141.274522208
140.938684817
140.590809848
140.230168386
139.85603489
139.467685656
139.064389997
138.645412846
138.21001096
137.757432012
137.286914018
136.797684975
136.288962729
135.759955013
135.209859617
134.637864658
134.043148862
133.424882025
132.782225189
132.114331529
131.420347541
130.699414824
129.95066672
129.173229948
128.366227597
127.528778664
126.659998439
125.758999075
124.824890046
123.856778507
122.853769624
121.814966815
120.739471061
119.626380741
118.474790966
117.283792526
116.052470513
114.779902382
113.465154666
112.107278788
110.705307178
109.258248392
107.765082781
106.224755971
104.636171194
102.998184122
101.3095994
99.5691715976
97.7756148689
95.9276278874
94.0239458979
92.0634368433
90.0452708339
87.9692025422
85.8360449161
83.6484121634
81.4118386567
79.1363627363
76.8385917947
74.5432096958
72.2822284699
146.198297897
146.048849807
145.872433013
145.668692977
145.439157873
145.193446466
144.939082835
144.680440179
144.419728483
144.157628732
143.893825029
143.627459518
143.357440685
143.082619896
142.80188043
142.514174116
142.218528935
141.914042371
141.599869102
141.275207587
140.939287691
140.591360216
140.230688533
139.856542075
139.468189696
139.064900696
138.64593691
138.210553358
137.757996743
137.287504527
136.798304438
136.289614321
135.760642118
135.210586007
134.638634666
134.043967641
133.425755826
132.78316204
132.115341847
131.421443845
130.700608389
129.951972462
129.174667823
128.367821941
127.530558879
126.662000131
125.761265427
124.827473494
123.859742753
122.857191958
121.818940772
120.744110289
119.631823428
118.48120513
117.291382361
116.061483846
114.790639523
113.47798021
112.122637853
110.723743404
109.280425511
107.791810555
106.25702275
104.675185371
103.045425369
101.366882427
99.638726012
97.8601848867
96.030596146
94.1494871045
92.2167032829
90.232611559
88.1984077132
86.1165839023
83.9915874684
81.8307150873
79.6452194709
77.4515154388
75.2716518842
73.1318128645
146.179021458
146.029143206
145.85717909
145.659241881
145.434678213
145.192556213
144.940417542
144.682904471
144.422572559
144.160405936
143.896309336
143.629567024
143.359169418
143.084009054
142.802985288
142.51505195
142.219232003
141.914615086
141.600347531
141.275620099
140.939656093
140.591700978
140.231013881
139.856860933
139.46850964
139.065226584
138.646272664
138.210902191
137.758361442
137.287887763
136.798708869
136.290042803
135.761097879
135.211072821
134.639157049
134.044531066
133.426366937
132.783828807
132.116073388
131.422250627
130.701505329
129.952976851
129.175800234
128.369107253
127.532027314
126.663688414
125.763218164
124.829744833
123.862398428
122.860311796
121.822621739
120.748470135
119.637005098
118.487382174
117.298765568
116.07032947
114.801259447
113.490753357
112.138023826
110.74230207
109.302836205
107.818899587
106.289795847
104.714867185
103.093507757
101.425183348
99.7094613516
97.9460551235
96.1348899391
94.2762032859
92.3706878818
90.4197126958
88.4256194313
86.3921621945
84.3250494834
82.232627814
80.1266234273
78.0227941823
75.9408352095
73.90267663
146.179024004
146.029159227
145.857206052
145.659278066
145.43472285
145.19260847
144.940476495
144.682969292
144.422642552
144.160480528
143.896388064
143.62964953
143.359255435
143.084098396
142.803077844
142.51514767
142.219330891
141.914717202
141.600452983
141.275729052
140.939768774
140.59181769
140.231135018
139.856987005
139.468641334
139.065364628
138.646417978
138.211055913
137.758524969
137.288062644
136.798897118
136.290246878
135.761320754
135.211318103
134.639429107
134.044835185
133.4267095
132.784217556
132.116517893
131.422762823
130.702099237
129.953669497
129.176612382
128.370064148
127.533159618
126.665033361
125.76482096
124.831660364
123.864693326
122.863066946
121.825935314
120.752461287
119.641818446
118.493193229
117.305787295
116.07882017
114.811532259
113.503187952
112.15308154
110.760543059
109.324939426
107.845688494
106.322269234
104.754235834
103.141238298
101.483048941
99.7796002817
98.0310419521
96.2378201723
94.4007865882
92.5213788716
90.6018787484
88.6454077522
86.6565918286
84.6419473422
82.6103771252
80.5736697445
78.5468462728
76.5478141419
74.5956716932
146.198305589
146.048898244
145.872514501
145.66880228
145.439292649
145.193604007
144.939260336
144.680635178
144.419938905
144.157852862
143.894061491
143.627707246
143.357698886
143.082888022
142.802158147
142.514461279
142.218825569
141.914348656
141.600185369
141.275534327
140.939625585
140.591710159
140.231051672
139.856919954
139.468584283
139.065314168
138.646371978
138.211013345
137.758485691
137.288027321
136.798867044
136.290223983
135.761307635
135.211318086
134.639446352
134.044874834
133.42677786
132.784322333
132.116668458
131.42297056
130.702377987
129.95403611
129.177087361
128.370672405
127.533931414
126.666005446
125.766037958
124.833176445
123.86657424
122.865392484
121.828802287
120.755987142
119.646145643
118.498494543
117.312272251
116.086742848
114.821200801
113.514976153
112.167440368
110.778016679
109.346193392
107.871522874
106.353648835
104.792323021
103.187430678
101.5390284
99.8474073362
98.1131464366
96.3371318252
94.5207408369
92.6659422936
90.7754397648
88.85320236
86.9044858486
84.9362829699
82.9577485616
80.9805582464
79.0191197682
77.0901546899
75.2111089508
146.240587244
146.090645626
145.903944357
145.687883512
145.44821718
145.195430321
144.936822178
144.676108168
144.414761532
144.152856494
143.889652776
143.624027477
143.354740555
143.080571191
142.800376247
142.51310621
142.217799887
141.913570223
141.59958794
141.275066161
140.939247269
140.591392293
140.230772642
139.856663587
139.468341656
139.065077053
138.646135461
138.210774587
137.758243284
137.287780988
136.798617417
136.289972498
135.761056493
135.211070272
134.639205708
134.044646178
133.426567157
132.784136908
132.116517263
131.422864511
130.702330386
129.95406314
129.177208709
128.370912019
127.534318401
126.666575171
125.766833366
124.834249674
123.867988573
122.867224701
121.831145516
120.75895432
119.649873693
118.503149419
117.31805501
116.093896968
114.830020977
113.52581919
112.180738353
110.794290947
109.366067201
107.895755491
106.383155801
104.828208301
103.231028004
101.591925537
99.9114520593
98.1904730309
96.430311424
94.63277895
92.8003292505
90.9362244084
89.0447725963
87.1315763341
85.2038550861
83.2707817761
81.3437988756
79.4368550751
77.5660866096
75.7484132509
146.314672544
146.159163357
145.952939352
145.71644067
145.461021939
145.197791305
144.933219359
144.669745434
144.407641299
144.14608002
143.883728391
143.619110645
143.350797661
143.077481468
142.797990404
142.511277338
142.216397744
141.912486159
141.598734919
141.274376502
140.938669556
140.590888231
140.230314274
139.856230932
139.467919974
139.064656773
138.645710109
138.210340072
137.757797292
137.287322557
136.79814665
136.289490394
135.760564863
135.210571721
134.638703677
134.044145032
133.426072334
132.783655138
132.116056843
131.42243562
130.701945464
129.953737332
129.17696044
128.370763691
127.534297246
126.666714276
125.767172925
124.834838498
123.868885902
122.868502404
121.832890751
120.761272755
119.652893396
118.507025541
117.322975425
116.100089046
114.83775968
113.53543687
112.192636987
110.808955437
109.384082345
107.917822044
106.41011325
104.861055608
103.270940415
101.64031013
99.9699980442
98.2611862282
96.5154857555
94.7350388401
92.922643823
91.0819006253
89.2173903252
87.3348871106
85.4416204215
83.5465742809
81.6608289608
79.797955291
77.9739667847
76.2062774657
146.4377956
146.262024968
146.020932988
145.753690139
145.476576402
145.200001053
144.928364341
144.661907199
144.399179461
144.138202247
143.876941724
143.613531781
143.346347771
143.073999577
142.795294926
142.509196655
142.214783182
141.911215507
141.597711249
141.273524959
140.937933546
140.590225761
140.229694767
139.855632234
139.467326354
139.064057559
138.645098061
138.209710498
137.757147404
137.286650985
136.797453124
136.288775552
135.759830151
135.20981937
134.637936727
134.043367382
133.425288815
132.782871692
132.115280773
131.421675926
130.701213246
129.953046238
129.17632718
128.370208637
127.533845173
126.666395279
125.767023538
124.834903055
123.869218193
122.869167659
121.833968034
120.762857865
119.655102338
118.509998708
117.326882634
116.105135651
114.84419392
113.543558392
112.202806906
110.8216088
109.399741989
107.937113584
106.433785056
104.890002871
103.306233543
101.68320537
100.021961472
98.3239235667
96.5909663079
94.825502538
93.0305870801
91.2100372166
89.3685762275
87.5119945367
85.6473530299
83.7832449283
81.9301844333
80.1012524421
78.3124815273
76.5825489768
146.641195038
146.409568157
146.108285174
145.797411164
145.492661723
145.200715183
144.921804149
144.652732442
144.389818282
144.129773055
143.869837666
143.607775845
143.341796061
143.070450113
142.792542075
142.507055656
142.213098781
141.909862638
141.596592118
141.272564867
140.937076534
140.589430425
140.228931111
139.854879355
139.466568598
139.063284341
138.644302241
138.208887407
137.756294165
137.28576604
136.796535926
136.287826372
135.75885001
135.20881002
134.636900692
134.042308067
133.42421063
132.781780142
132.11418256
131.420579075
130.700127344
129.95198291
129.175300639
128.369236285
127.532948315
126.665599954
125.766361499
124.834412933
123.868946906
122.869172173
121.834317486
120.763636103
119.656410958
118.511960737
117.329646966
116.108882189
114.849138902
113.549962253
112.210983248
110.831934497
109.412669225
107.953183886
106.453644693
104.914419289
103.336114142
101.71961886
100.066156698
98.3773439749
96.6552593812
94.9025205226
93.1223689222
91.3187621697
89.4964741107
87.661201362
85.8196947646
83.979947619
82.1515803479
80.3467463255
78.5809610953
76.8740804588
146.975249964
146.612078061
146.212334993
145.843465747
145.50595336
145.197938634
144.91264822
144.642005291
144.37968479
144.121061601
143.86271927
143.602127605
143.337387961
143.067034152
142.78989114
142.504977451
142.211437836
141.908497112
141.595428684
141.27153355
140.936126056
140.588522642
140.228039273
139.853983286
139.46565452
139.062342769
138.643326789
138.207873971
137.755240186
137.284670011
136.795397144
136.286644794
135.757626091
135.20754463
134.635595135
134.040964267
133.422831427
132.780369376
132.112745241
131.419121859
130.698658905
129.950513501
129.173842652
128.367804742
127.531561382
126.664279606
125.76513435
124.833311272
123.868009974
122.868447598
121.833862686
120.763520466
119.656718363
118.512792522
117.331125453
116.111155102
114.852386071
113.554400593
112.216873439
110.83958942
109.422463624
107.965565204
106.46914532
104.933670016
103.359858428
101.748727252
100.101641272
98.4203703299
96.7071519484
94.9647581703
93.1965646121
91.4066176652
89.5996932192
87.7813423265
85.9579285473
84.1366678443
82.325861024
80.5358867751
78.7799580022
77.0767227865
147.525022985
146.871082178
146.318902812
145.881419743
145.509910205
145.187903016
144.898880821
144.628711331
144.368302249
144.111866803
143.855521718
143.596586695
143.333150843
143.063788163
142.787378446
142.502993989
142.209826438
141.907139354
141.594236851
141.270443509
140.935091247
140.587509823
140.227020306
139.852942513
139.464581032
139.061228902
138.64216742
138.206665819
137.753981461
137.28335991
136.794035592
136.285232341
135.756163863
135.206034311
134.634038912
134.039364464
133.421189459
132.778687951
132.111027975
131.41737291
130.696883015
129.948717576
129.172035511
128.365997329
127.529767211
126.662515283
125.763420196
124.831672033
123.866475597
122.867054279
121.832654828
120.76255203
119.656054755
118.512512907
117.331325497
116.111949919
114.853912845
113.556824835
112.22039425
110.844445606
109.428940911
107.974004609
106.479952705
104.947326534
103.37693155
101.769881493
100.127647925
98.4521145229
96.7456344012
95.0110932151
93.251964348
91.4723575983
89.6770456222
87.8714569963
86.0616082604
84.2538862189
82.4549496724
80.6723542138
78.9132090695
77.1861955218
148.520260494
147.162444037
146.371695967
145.871851382
145.481009012
145.157250829
144.872836318
144.608326892
144.352920903
144.100472079
143.847154775
143.590456656
143.328641524
143.060433351
142.784831749
142.501001561
142.208204537
141.905756184
141.592999293
141.269285249
140.933954595
140.586357867
140.225843142
139.851727079
139.463318034
139.059912419
138.640793172
138.205228487
137.752477427
137.28178708
136.792392486
136.283517807
135.754377028
135.204174589
134.63210609
134.037359246
133.419115438
132.776547605
132.108823914
131.415108652
130.69456321
129.946347412
129.169621203
128.363546486
127.527289156
126.66002142
125.760924458
124.829191436
123.864030947
122.864670922
121.830363225
120.760388955
119.654064652
118.510749484
117.329853679
116.110848487
114.853277959
113.556771009
112.2210588
110.845993141
109.43156826
107.977946265
106.48548673
104.954780863
103.38669067
101.782393329
100.143430357
98.4717594199
96.7698072891
95.0405480484
93.2875295015
91.5149197954
89.7275236309
87.9307583103
86.1305205616
84.332676432
82.5427549011
80.7655168763
78.9957636965
77.2039560452
150.313368945
147.385270534
146.271741253
145.744668559
145.3775664
145.082990243
144.821529408
144.573159689
144.328799472
144.083881927
143.835712229
143.582537698
143.323128225
143.056550164
142.782038704
142.498922544
142.206577897
141.904400156
141.591786798
141.268130382
140.93282558
140.585232613
140.224682606
139.850510342
139.462033713
139.058553548
138.639356047
138.203716236
137.750891759
137.280128229
136.790660719
136.28171355
135.752500782
135.202226893
134.630087478
134.035269959
133.416954531
132.774315196
132.106520753
131.41273583
130.69212221
129.943840337
129.167050869
128.360916507
127.524604081
126.657286924
125.758147555
124.826380721
123.861196892
122.861826289
121.82752358
120.757573227
119.651295772
118.508055164
117.327267284
116.108409945
114.851034711
113.554780696
112.219390717
110.844730264
109.430809735
107.977810363
106.486114269
104.956339115
103.389377636
101.786442141
100.149114065
98.479400937
96.7797990491
95.0533141629
93.3035514156
91.5347478025
89.7517923771
87.9602039473
86.1660291716
84.3757669865
82.5958407019
80.8310411217
79.0609259419
77.1609828263
57.1137207161
53.5616702484
51.1702691695
49.2130005254
47.5412425573
46.0848249267
44.7997476433
43.6562710932
42.632678086
41.7121717104
40.8812951766
40.1289972616
39.4460391287
38.8245958238
38.2579741969
37.7404038275
37.2668772335
36.8330241936
36.435011564
36.0694614529
35.7333841957
35.4241230629
35.1393085846
34.8768199015
34.6347526099
34.4113923084
34.205191318
34.0147488435
33.8387946927
33.6761744604
33.5258361168
33.3868195117
33.2582465891
33.1393117052
33.029274405
32.9274516926
32.8332096843
32.7459570807
32.6651384311
32.5902667013
32.5210611619
32.4572500989
32.3982922562
32.3437613159
32.2932689519
32.2465105036
32.2032128946
32.1631261249
32.1260303033
32.091683569
32.0598554576
32.0303857022
32.0030727836
31.9777519935
31.9542562099
31.9324372816
31.9121592814
31.8932965352
31.875732268
31.8593578831
31.8440746389
31.8297912591
31.8164227142
31.8038899527
31.7921205452
31.7810480948
31.77061042
31.7607505626
31.7514169126
31.7425609918
31.734138824
31.7261103015
31.7184378145
31.7110874592
31.7040284612
31.6972323697
31.6906725758
31.6843260463
31.6781701264
31.6721847523
31.6663520872
31.6606553498
31.6550802226
31.6496125515
31.6442405236
31.6389525383
31.6337378257
31.6285875006
31.6234935678
31.6184557953
31.6134678321
31.6085244538
31.6035942709
31.5987038163
31.5938367742
31.58901303
31.5842099655
31.5794131852
31.5746161638
31.5698152492
31.5650066379
31.5601868116
31.555352643
31.5505010977
31.5456297359
31.5407356045
31.5358160795
31.5308692812
31.5258928469
31.5208847505
31.5158433986
31.5107672782
31.5056554225
31.5005073115
31.4953223415
31.4901003775
31.4848423956
31.4795497551
31.4742243848
31.4688696296
31.4634897871
31.4580906103
31.4526798738
31.447267088
31.4418637838
31.4364835991
31.4311360503
31.4258341797
31.420542461
31.4153680681
31.4109294044
31.4067054528
31.402683493
31.399026067
31.3958805889
31.3933661181
31.3915683801
31.3905900034
31.3905399682
31.391948055
31.3943566899
31.3979311376
31.4024613345
31.4071702273
31.4099049534
31.405745319
31.3833787961
31.3201427722
31.1737804338
30.8730604368
30.3122801997
29.3586042699
27.8803674865
25.7868189037
23.0539875413
19.7391713446
15.9604966603
11.6837959555
6.63351004205
1.58014892854
60.2951460326
56.2422933764
53.530371838
51.3781992334
49.5765684443
48.0270701945
46.6714714117
45.4725013059
44.4039405486
43.4461046093
42.5836056279
41.8040547099
41.0972630567
40.4547163279
39.8692132604
39.334602038
38.8455856417
38.3975704072
37.9865482172
37.6090026756
37.2618318043
36.9422875422
36.6479241811
36.3765562076
36.1262247733
35.8951674138
35.6817945916
35.4846693404
35.3024876463
35.1340661549
34.9783268948
34.8342847451
34.701041979
34.5777751931
34.4637296102
34.3582145588
34.2605959351
34.1702947684
34.0867826279
34.0095604299
33.9380990671
33.8719218955
33.8106603253
33.7539797943
33.7015472705
33.6530466845
33.6081789886
33.5666609319
33.5282324202
33.4926553864
33.4597012192
33.4291923838
33.4009121779
33.3746840733
33.3503538817
33.3277710751
33.3067952476
33.2872960757
33.269152641
33.2522581568
33.2365026167
33.2217895345
33.2080322243
33.1951448285
33.1830547625
33.1716918734
33.1609907887
33.1508928562
33.1413439436
33.1322939385
33.1236962221
33.1155092448
33.1076949016
33.1002153722
33.0930416151
33.086141313
33.0794889936
33.0730578035
33.0668287128
33.0607788338
33.0548925099
33.0491474497
33.0435318935
33.0380282798
33.0326253109
33.0273123806
33.0220751357
33.0169082727
33.0117987748
33.0067356692
33.0017088634
32.996716312
32.9917359704
32.9867889846
32.9818547042
32.976926313
32.9720010616
32.9670784947
32.9621589564
32.9572353498
32.952307214
32.9473712398
32.9424220167
32.9374596655
32.9324800171
32.9274800894
32.9224585354
32.9174122116
32.9123395672
32.9072379492
32.9021055093
32.8969411241
32.8917429634
32.8865105644
32.8812432504
32.875940122
32.8706026807
32.8652320229
32.8598300781
32.854400887
32.8489488258
32.8434809942
32.8380066675
32.8325374417
32.8270885691
32.8216795634
32.8163324135
32.8110829651
32.805963559
32.8010559942
32.7964447786
32.7920092536
32.7879882215
32.7844580282
32.7815741216
32.7794759988
32.7782084205
32.777926997
32.7787727093
32.7810323951
32.7846428354
32.7896437626
32.7957370069
32.8019375145
32.8055678839
32.8007726445
32.7741918543
32.6999153536
32.5306466942
32.188691459
31.5620663208
30.5148458676
28.9184884331
26.6921491998
23.8237453452
20.3749667354
16.4619725158
12.0661906232
6.92578532085
1.7148126276
62.5026515255
58.5691540232
55.7020888323
53.4183772505
51.5167636346
49.8907649685
48.4753254102
47.2283910261
46.1204938758
45.1297217841
44.2391309924
43.4352259756
42.7070186579
42.0454093079
41.442762681
40.8926012088
40.3893803737
39.9283163599
39.5052526929
39.1165555603
38.7590289067
38.429847642
38.1265022218
37.8467532785
37.5885959093
37.3502277707
37.1300238038
36.9265160615
36.7383727059
36.5643842859
36.4034503301
36.2545648664
36.1168098813
35.9893442248
35.8713954673
35.7622543188
35.6612672038
35.5678305857
35.4813872561
35.4014310109
35.3274866741
35.2589318826
35.195436381
35.1367250796
35.0824278819
35.0322022708
34.9857396741
34.9427522464
34.9029785004
34.8661689475
34.8320922016
34.8005504473
34.7713359953
34.7442537225
34.7191419118
34.6958434846
34.6742139771
34.6541178389
34.6354272124
34.6180246402
34.6018046705
34.5866684241
34.5725258115
34.5592889748
34.5468815709
34.5352306486
34.5242690774
34.5139355856
34.5041733123
34.4949306005
34.48615935
34.4778151377
34.4698592157
34.4622525053
34.4549633016
34.4479593206
34.4412141058
34.4346983092
34.4283926144
34.4222686253
34.4163116875
34.4105007654
34.4048237907
34.3992632129
34.3938068697
34.3884420672
34.3831534598
34.3779345243
34.3727673999
34.3676507055
34.3625806877
34.3575497431
34.352542071
34.3475643222
34.342606143
34.3376631259
34.3327293214
34.3277980765
34.3228679149
34.3179314536
34.3129867689
34.3080313498
34.3030596883
34.298071322
34.2930622477
34.2880294301
34.2829717289
34.2778857154
34.272770071
34.2676227307
34.2624412607
34.257224903
34.2519721546
34.2466821052
34.2413548305
34.2359897444
34.2305880587
34.2251515545
34.2196823773
34.2141849766
34.2086646891
34.2031293193
34.1975893689
34.1920579816
34.1865524593
34.1810953624
34.1757132076
34.1704463264
34.1653345515
34.1604207941
34.1557688104
34.1514462407
34.1475922665
34.144309947
34.1416440361
34.1397277974
34.1388274747
34.1390941559
34.1406741698
34.1437500272
34.1483972348
34.1545998356
34.1619611093
34.1692508299
34.1732312821
34.167036786
34.135261606
34.0487378995
33.8553500103
33.471450809
32.7796446497
31.6418801011
29.9331744831
27.5818280303
24.5858537164
21.0095261677
16.9657282747
12.4507291986
7.21742423775
1.8471852076
64.3068911089
60.5821754713
57.6783093675
55.3233864858
53.3536835235
51.6698492355
50.2066941778
48.9202966907
47.7793632562
46.7605174848
45.8457005126
45.0205825085
44.2735543139
43.5950531304
42.9770970001