/*--------------------------------*- C++ -*----------------------------------*\
| =========                 |                                                 |
| \\      /  F ield         | OpenFOAM: The Open Source CFD Toolbox           |
|  \\    /   O peration     | Version:  2106                                  |
|   \\  /    A nd           | Website:  www.openfoam.com                      |
|    \\/     M anipulation  |                                                 |
\*---------------------------------------------------------------------------*/
FoamFile
{
    version     2.0;
    format      ascii;
    arch        "LSB;label=32;scalar=64";
    class       surfaceScalarField;
    location    "0.245";
    object      phi;
}
// * * * * * * * * * * * * * * * * * * * * * * * * * * * * * * * * * * * * * //

dimensions      [0 3 -1 0 0 0 0];

oriented        oriented;

internalField   nonuniform List<scalar> 
22100
(
3.38461204521e-05
1.61538795506e-05
2.24572102071e-05
1.13889103309e-05
1.62585535137e-05
6.19865675856e-06
1.27977767182e-05
3.46077686764e-06
1.08046430161e-05
1.99313377249e-06
9.60459016567e-06
1.20005293071e-06
8.85132257514e-06
7.53267670569e-07
8.36435392165e-06
4.8696873154e-07
8.04433619565e-06
3.20017802991e-07
7.83284154451e-06
2.11494720208e-07
7.6933985123e-06
1.39443093777e-07
7.60224174501e-06
9.11568260746e-08
7.54347906898e-06
5.87627344496e-08
7.50634224307e-06
3.7136884128e-08
7.48350280336e-06
2.28394965861e-08
7.46998202819e-06
1.35208282833e-08
7.46241743245e-06
7.56464292039e-09
7.4585494112e-06
3.86806046634e-09
7.45683042671e-06
1.7190146008e-09
7.45642375816e-06
4.06688397483e-10
7.45677352796e-06
-3.49761222535e-10
7.45745964688e-06
-6.86121759783e-10
7.45821792408e-06
-7.58289545925e-10
7.45894316042e-06
-7.252546213e-10
7.4595874041e-06
-6.44264093309e-10
7.46013127378e-06
-5.43891013632e-10
7.46057332403e-06
-4.42074150478e-10
7.46092200924e-06
-3.48714429376e-10
7.46119023749e-06
-2.68264392934e-10
7.4613920976e-06
-2.01902698845e-10
7.46154096759e-06
-1.48917942075e-10
7.46164855129e-06
-1.07636877487e-10
7.46172457892e-06
-7.60873375982e-11
7.46177718042e-06
-5.26702538594e-11
7.4618103055e-06
-3.32042466844e-11
7.46182894917e-06
-1.87332809371e-11
7.46183788201e-06
-9.03019436881e-12
7.46184054192e-06
-2.76215837985e-12
7.46183887094e-06
1.56508602821e-12
7.46183400186e-06
4.75723146618e-12
7.46182686221e-06
7.01789685662e-12
7.46181805231e-06
8.67562184607e-12
7.46180793921e-06
9.96711188779e-12
7.46179669698e-06
1.10870785025e-11
7.46178433304e-06
1.22018902942e-11
7.46177073007e-06
1.34371552446e-11
7.46175566711e-06
1.48962781539e-11
7.46173882339e-06
1.6675609694e-11
7.46171976812e-06
1.88788950752e-11
7.46169796333e-06
2.16104542529e-11
7.46167280236e-06
2.49438324037e-11
7.46164358678e-06
2.89762642245e-11
7.46160952021e-06
3.38051809687e-11
7.46156972904e-06
3.95018505258e-11
7.46152332008e-06
4.60827824008e-11
7.46146945946e-06
5.34898621568e-11
7.4614074223e-06
6.16164556454e-11
7.46133705867e-06
6.98948132659e-11
7.46125907342e-06
7.74823653149e-11
7.46117588116e-06
8.2680831086e-11
7.46109363849e-06
8.17417127903e-11
7.46102465203e-06
6.84930017167e-11
7.46097675442e-06
4.74018551053e-11
7.4609689455e-06
7.31745872642e-12
7.4610371168e-06
-6.86377088577e-11
7.461239494e-06
-2.0278675916e-10
7.46167055018e-06
-4.31388883274e-10
7.46248036804e-06
-8.10070860764e-10
7.46390431085e-06
-1.42413169747e-09
7.46629815139e-06
-2.39397612632e-09
7.47011199449e-06
-3.81391906638e-09
7.47655665809e-06
-6.4446738157e-09
7.48732673514e-06
-1.07700291719e-08
7.5055066475e-06
-1.81798257499e-08
7.53870886594e-06
-3.32021242674e-08
7.60796759637e-06
-6.92586443136e-08
7.77474566751e-06
-1.66777943159e-07
8.22998823452e-06
-4.55242365499e-07
9.69874897106e-06
-1.46876051916e-06
-5.45634038361e-06
1.51550894011e-05
5.02175949726e-05
1.59362846541e-05
4.42441119534e-05
1.73623934961e-05
3.77795020131e-05
1.2663266824e-05
3.26461447103e-05
8.59413430903e-06
2.89380927534e-05
5.70118586373e-06
2.63596225094e-05
3.77852331613e-06
2.45875182497e-05
2.52537207272e-06
2.33734763365e-05
1.70101077783e-06
2.25435274316e-05
1.149966832e-06
2.197821889e-05
7.76803376884e-07
2.15955165071e-05
5.22145585739e-07
2.13387400912e-05
3.47933348357e-07
2.11684987206e-05
2.29004209702e-07
2.10573412638e-05
1.48294441434e-07
2.09861535026e-05
9.40273500314e-08
2.09416812767e-05
5.79931343188e-08
2.09147996137e-05
3.44463712094e-08
2.0899300659e-05
1.93670640951e-08
2.08910770178e-05
9.94268714619e-09
2.08872768613e-05
4.20685769199e-09
2.08862079376e-05
7.19156997511e-10
2.08864537043e-05
-9.31908826518e-10
2.08873251651e-05
-1.62978055345e-09
2.08884646725e-05
-1.86479695571e-09
2.08896379957e-05
-1.81762540374e-09
2.08907209678e-05
-1.62690702137e-09
2.08916585298e-05
-1.37968984044e-09
2.08924360093e-05
-1.1262595701e-09
2.08930611739e-05
-8.93506114238e-10
2.08935532439e-05
-6.94060130328e-10
2.0893937001e-05
-5.32772766497e-10
2.08942384263e-05
-4.09172453026e-10
2.08944492764e-05
-2.87063683587e-10
2.08945962013e-05
-1.99739400502e-10
2.0894696423e-05
-1.33587702737e-10
2.08947616417e-05
-8.41280299374e-11
2.08948020317e-05
-4.96066943274e-11
2.08948257627e-05
-2.66887924429e-11
2.08948376445e-05
-1.05248952555e-11
2.08948406073e-05
1.568815876e-12
2.08948370605e-05
1.0318567308e-11
2.08948286639e-05
1.68072133961e-11
2.08948165561e-05
2.17945067277e-11
2.08948014509e-05
2.58993381006e-11
2.08947837199e-05
2.96320788289e-11
2.0894763501e-05
3.33504140689e-11
2.08947407735e-05
3.73117434591e-11
2.08947154035e-05
4.17161311151e-11
2.08946871688e-05
4.67522488777e-11
2.08946557942e-05
5.2583330214e-11
2.08946210553e-05
5.92407116228e-11
2.0894582795e-05
6.67524998987e-11
2.08945410025e-05
7.5060660847e-11
2.08944959554e-05
8.39443929057e-11
2.08944484719e-05
9.28845106272e-11
2.08944003218e-05
1.00877085506e-10
2.08943546895e-05
1.06412208136e-10
2.08943174693e-05
1.06225590013e-10
2.08942981186e-05
9.59189776857e-11
2.08943117642e-05
6.8119981403e-11
2.08943848992e-05
7.6959671634e-12
2.0894566722e-05
-1.14227122767e-10
2.08949253721e-05
-3.12110559173e-10
2.08955789906e-05
-6.47098874941e-10
2.08966376788e-05
-1.12803363213e-09
2.08982759993e-05
-1.84170755733e-09
2.09008520694e-05
-3.00794062219e-09
2.0904914075e-05
-4.87244138368e-09
2.09113317275e-05
-7.84203383065e-09
2.09215297877e-05
-1.25921652892e-08
2.09380003977e-05
-2.02845422888e-08
2.09648938604e-05
-3.33380537123e-08
2.10091558881e-05
-5.50319004903e-08
2.10839731945e-05
-9.29969402831e-08
2.12152987027e-05
-1.64527470651e-07
2.14560962494e-05
-3.10056078142e-07
2.19143467734e-05
-6.25028472394e-07
2.28022507414e-05
-1.3431467182e-06
2.44481979165e-05
-3.11470814728e-06
-7.04620550748e-06
2.60380654806e-05
5.35171054311e-05
1.24191792893e-05
5.29349686031e-05
1.79445304606e-05
4.96538405547e-05
1.59443949841e-05
4.58401820227e-05
1.24077929631e-05
4.24400931356e-05
9.10127487314e-06
3.9729173288e-05
6.48944328903e-06
3.76873069197e-05
4.5672385628e-06
3.6197664196e-05
3.19065361691e-06
3.51326136622e-05
2.21501747603e-06
3.43823687055e-05
1.52704843687e-06
3.38606278151e-05
1.0438865746e-06
3.35023476658e-05
7.06213593912e-07
3.32596028567e-05
4.71749112294e-07
3.30975926438e-05
3.10304741895e-07
3.29913366587e-05
2.00283414025e-07
3.29230948644e-05
1.26234996801e-07
3.28804069858e-05
7.71343062742e-08
3.28546219029e-05
4.51521905594e-08
3.28397948375e-05
2.47697816437e-08
3.28318683491e-05
1.21333594668e-08
3.28279988819e-05
4.58862209549e-09
3.28270002245e-05
6.67338376392e-11
3.28271809661e-05
-1.81054488284e-09
3.28280293326e-05
-2.71319077237e-09
3.28291450398e-05
-2.93336484055e-09
3.28302922005e-05
-2.77410776701e-09
3.28313480636e-05
-2.43560352161e-09
3.28322583228e-05
-2.03657993468e-09
3.28330081298e-05
-1.64338331526e-09
3.28336035702e-05
-1.28957842496e-09
3.28340595857e-05
-9.88874028402e-10
3.28343942986e-05
-7.43981320404e-10
3.28346603741e-05
-5.53248086243e-10
3.2834876404e-05
-4.15892925406e-10
3.28350232556e-05
-2.80577238675e-10
3.28351221157e-05
-1.83138146855e-10
3.28351876023e-05
-1.1525275711e-10
3.28352291409e-05
-6.83963807276e-11
3.28352536036e-05
-3.51689581091e-11
3.28352649512e-05
-9.97616493163e-12
3.28352667383e-05
8.3172166778e-12
3.28352614572e-05
2.185773317e-11
3.28352509301e-05
3.20761506629e-11
3.28352363827e-05
4.01894521565e-11
3.28352185698e-05
4.71808744742e-11
3.28351979568e-05
5.36965184732e-11
3.28351748335e-05
6.01612638987e-11
3.28351493808e-05
6.68758906456e-11
3.28351216612e-05
7.41492172328e-11
3.28350916932e-05
8.21968329272e-11
3.28350597777e-05
9.07717226091e-11
3.28350264844e-05
9.96265691833e-11
3.28349928007e-05
1.08278286326e-10
3.28349604446e-05
1.1577370626e-10
3.28349323685e-05
1.20363238252e-10
3.28349133142e-05
1.19261239355e-10
3.28349100257e-05
1.08968613493e-10
3.283493386e-05
8.16240937479e-11
3.28350021064e-05
2.68948973651e-11
3.28351442555e-05
-7.4813556631e-11
3.28354115841e-05
-2.60430290629e-10
3.28358923866e-05
-5.95831122541e-10
3.28366039216e-05
-1.02442083679e-09
3.28376384154e-05
-1.6823031461e-09
3.28392524771e-05
-2.74270889251e-09
3.28418240435e-05
-4.41377766815e-09
3.28458568771e-05
-7.04117572296e-09
3.28521655242e-05
-1.11814028712e-08
3.28620635827e-05
-1.77403226082e-08
3.28777168569e-05
-2.82455787578e-08
3.29027886436e-05
-4.53563741363e-08
3.29426352375e-05
-7.31845991088e-08
3.30070955358e-05
-1.19492071299e-07
3.31131701524e-05
-1.99071386683e-07
3.32899061984e-05
-3.41263284759e-07
3.3585571551e-05
-6.05721087304e-07
3.40713618674e-05
-1.11081839509e-06
3.48136028879e-05
-2.08538768711e-06
3.56762955413e-05
-3.97740276564e-06
-7.11667572382e-06
3.57467597682e-05
5.35105665509e-05
8.90861280059e-06
5.55742224953e-05
1.58808746478e-05
5.52424829236e-05
1.6276134669e-05
5.35977865226e-05
1.40524894838e-05
5.15418484033e-05
1.11572131101e-05
4.95802807742e-05
8.45101103944e-06
4.79243518859e-05
6.22316756895e-06
4.66181401405e-05
4.49686547475e-06
4.56304674664e-05
3.20269025943e-06
4.4905118643e-05
2.25239736414e-06
4.43840915761e-05
1.56491374024e-06
4.40166955459e-05
1.07360971866e-06
4.37619691684e-05
7.2647557871e-07
4.35882706719e-05
4.84003318946e-07
4.34718714162e-05
3.16682740502e-07
4.33953614431e-05
2.02745030978e-07
4.33461912574e-05
1.26304543238e-07
4.33154537304e-05
7.58897587499e-08
4.32969174394e-05
4.3306101718e-08
4.32862914362e-05
2.27593777733e-08
4.32806886487e-05
1.01914111271e-08
4.32778810213e-05
2.87435172861e-09
4.32770532562e-05
-9.8279671046e-10
4.32772711742e-05
-2.93113173352e-09
4.32779587298e-05
-3.62095082307e-09
4.32788217909e-05
-3.6372089798e-09
4.32796945847e-05
-3.30844833416e-09
4.32804919946e-05
-2.83405047476e-09
4.32811776702e-05
-2.32912712417e-09
4.32817433961e-05
-1.85537922561e-09
4.32821960059e-05
-1.44156606766e-09
4.32825481966e-05
-1.09626402081e-09
4.32828097167e-05
-8.14872350052e-10
4.32829848419e-05
-5.9113666252e-10
4.3283117631e-05
-4.13498962909e-10
4.32832027463e-05
-2.68398272336e-10
4.32832565065e-05
-1.69168037249e-10
4.32832960691e-05
-1.08124733932e-10
4.32833202351e-05
-5.95131597408e-11
4.32833320016e-05
-2.1935351862e-11
4.32833347821e-05
5.32828856861e-12
4.32833305327e-05
2.58820768496e-11
4.328332096e-05
4.14076742475e-11
4.32833072234e-05
5.36727267536e-11
4.32832899737e-05
6.41711305097e-11
4.32832696428e-05
7.37638526133e-11
4.32832465542e-05
8.2975453201e-11
4.32832209812e-05
9.21535467134e-11
4.32831932814e-05
1.01528214375e-10
4.32831640076e-05
1.11125316148e-10
4.32831337777e-05
1.20630690298e-10
4.328310354e-05
1.29458640777e-10
4.32830747423e-05
1.36622606155e-10
4.32830494812e-05
1.40522936191e-10
4.32830306737e-05
1.38593003462e-10
4.32830225906e-05
1.26698505879e-10
4.32830330778e-05
9.77781957995e-11
4.32830740583e-05
3.9903520057e-11
4.32831646948e-05
-6.45012729182e-11
4.32833231461e-05
-2.34036594138e-10
4.32835550784e-05
-4.93143277342e-10
4.32839919841e-05
-1.03351123742e-09
4.32847532865e-05
-1.78647018813e-09
4.32859963017e-05
-2.92600685523e-09
4.32879278145e-05
-4.67482177847e-09
4.32908971157e-05
-7.38357588398e-09
4.32954636436e-05
-1.16081048111e-08
4.33025061349e-05
-1.82242130339e-08
4.33134072505e-05
-2.86416788317e-08
4.33303262472e-05
-4.5164733395e-08
4.33565750529e-05
-7.16052391561e-08
4.33977290155e-05
-1.14338518564e-07
4.34626483103e-05
-1.84411284959e-07
4.35650729401e-05
-3.01495960812e-07
4.37249844116e-05
-5.01174702603e-07
4.39670219489e-05
-8.4775856293e-07
4.43079108845e-05
-1.45170721619e-06
4.47090061914e-05
-2.48648206258e-06
4.49293504761e-05
-4.19774590593e-06
-6.58839033336e-06
4.44010620938e-05
5.27351380825e-05
6.17347478413e-06
5.57309346767e-05
1.2885078189e-05
5.7311474636e-05
1.46955948239e-05
5.76109922739e-05
1.3752971966e-05
5.7133523259e-05
1.16346822405e-05
5.6319468927e-05
9.26506548979e-06
5.54489889753e-05
7.09364763597e-06
5.46629786514e-05
5.28287591006e-06
5.40136833378e-05
3.85198568327e-06
5.350615226e-05
2.75992854747e-06
5.3124256605e-05
1.94680949484e-06
5.28449873357e-05
1.35287908129e-06
5.26454413753e-05
9.26021624372e-07
5.25057174231e-05
6.23727346916e-07
5.24097229495e-05
4.1267728046e-07
5.23450172352e-05
2.67450802996e-07
5.23022797041e-05
1.69042124074e-07
5.22746928199e-05
1.03476683785e-07
5.22573685287e-05
6.06304227482e-08
5.22468600571e-05
3.3267866633e-08
5.22407605117e-05
1.62909618277e-08
5.2237451718e-05
6.18314055575e-09
5.22359530452e-05
5.15862849393e-10
5.22354450132e-05
-2.4231214723e-09
5.22355098143e-05
-3.68578416335e-09
5.22358550701e-05
-3.98250856156e-09
5.22363090682e-05
-3.76250076409e-09
5.22367751753e-05
-3.30022019644e-09
5.22372022941e-05
-2.7563146452e-09
5.22375677032e-05
-2.22086276184e-09
5.22378647033e-05
-1.73864730702e-09
5.22380960852e-05
-1.32773602465e-09
5.22382721306e-05
-9.91019778357e-10
5.22384047477e-05
-7.23869822309e-10
5.22385048343e-05
-5.13716160408e-10
5.22385891834e-05
-3.52890998065e-10
5.22386544227e-05
-2.34561834233e-10
5.22386964556e-05
-1.5032259975e-10
5.22387289211e-05
-9.21555074375e-11
5.22387440447e-05
-3.72493103151e-11
5.22387489772e-05
1.89461604986e-13
5.22387462876e-05
2.83470944431e-11
5.22387379204e-05
4.95325379252e-11
5.22387252151e-05
6.61234011828e-11
5.22387090417e-05
8.00833049069e-11
5.22386899762e-05
9.25618326848e-11
5.22386685267e-05
1.04144085682e-10
5.2238645502e-05
1.14878283071e-10
5.22386211828e-05
1.25527862971e-10
5.22385942799e-05
1.37688957829e-10
5.22385663359e-05
1.48208972037e-10
5.223853841e-05
1.5697920369e-10
5.22385120178e-05
1.62559320962e-10
5.2238489573e-05
1.62455448647e-10
5.22384756576e-05
1.5193357297e-10
5.22384825073e-05
1.19211628056e-10
5.22385103238e-05
6.92707025826e-11
5.22385812956e-05
-3.18018430481e-11
5.22386974868e-05
-1.81453692595e-10
5.22388842555e-05
-4.21585560175e-10
5.22392171891e-05
-8.26853804426e-10
5.22397256327e-05
-1.54271395385e-09
5.22404879728e-05
-2.54953394309e-09
5.2241636087e-05
-4.07478791476e-09
5.2243372906e-05
-6.41222479889e-09
5.22459995686e-05
-1.00107323713e-08
5.22499677199e-05
-1.55766670989e-08
5.22559682906e-05
-2.42251175396e-08
5.22650601844e-05
-3.77338266657e-08
5.22788615697e-05
-5.89662794647e-08
5.22998323748e-05
-9.25760828624e-08
5.23316918542e-05
-1.46197924612e-07
5.23797903082e-05
-2.32509611837e-07
5.24510661185e-05
-3.72771622777e-07
5.25524023824e-05
-6.02510802828e-07
5.26843710996e-05
-9.7972707244e-07
5.28247733301e-05
-1.59210940288e-06
5.28921197442e-05
-2.55382826813e-06
5.26738314464e-05
-3.97945633895e-06
-5.77932596285e-06
5.18647656613e-05
5.19834865475e-05
4.18998830478e-06
5.50586642018e-05
9.80990067569e-06
5.7638613554e-05
1.21156455866e-05
5.93259036212e-05
1.20656820186e-05
6.02280157714e-05
1.07325702037e-05
6.05929270725e-05
8.90015430453e-06
6.06482841054e-05
7.03829071636e-06
6.05531897541e-05
5.37797037223e-06
6.04029552838e-05
4.00222026422e-06
6.02479148768e-05
2.91496906079e-06
6.0110789441e-05
2.08393503004e-06
5.99990300053e-05
1.46463860801e-06
5.99125149098e-05
1.01253680141e-06
5.98479230872e-05
6.88319240863e-07
5.9801019578e-05
4.59580852084e-07
5.9767734973e-05
3.00735463123e-07
5.97445936517e-05
1.92183494116e-07
5.97288151281e-05
1.19255248887e-07
5.97182669879e-05
7.11785949153e-08
5.97113607922e-05
4.01740834316e-08
5.9706941428e-05
2.07103363681e-08
5.97042075055e-05
8.91706324146e-09
5.97025984342e-05
2.12492415843e-09
5.97016938485e-05
-1.51855726127e-09
5.9701235485e-05
-3.22745438805e-09
5.97010458799e-05
-3.79294893539e-09
5.97010095004e-05
-3.72617606449e-09
5.97010536884e-05
-3.34446999321e-09
5.97011347233e-05
-2.83741723885e-09
5.97012269366e-05
-2.31314970656e-09
5.97013164499e-05
-1.82824160679e-09
5.97013966471e-05
-1.40802323333e-09
5.97014661012e-05
-1.06057585784e-09
5.97015254103e-05
-7.83295344283e-10
5.97015753805e-05
-5.63817156047e-10
5.97016149013e-05
-3.92555131014e-10
5.97016424063e-05
-2.62220625321e-10
5.97016574103e-05
-1.65490465468e-10
5.97016554791e-05
-9.03990246139e-11
5.97016471764e-05
-2.91346711469e-11
5.97016403033e-05
6.85761874231e-12
5.9701630736e-05
3.76894490609e-11
5.97016200471e-05
5.99775277318e-11
5.97016081189e-05
7.77942383826e-11
5.97015939022e-05
9.40350754206e-11
5.97015772279e-05
1.08963324142e-10
5.97015581092e-05
1.2297835924e-10
5.97015363911e-05
1.36297735977e-10
5.97015126936e-05
1.48911388226e-10
5.97014895237e-05
1.60525256714e-10
5.97014669477e-05
1.70420277933e-10
5.97014462145e-05
1.77304936768e-10
5.97014290312e-05
1.79284976271e-10
5.97014171519e-05
1.73818295446e-10
5.97014105797e-05
1.5792501178e-10
5.97013999028e-05
1.29245863966e-10
5.97014013028e-05
6.71753653839e-11
5.97014115365e-05
-4.27697383675e-11
5.970148478e-05
-2.55460044426e-10
5.97016662492e-05
-6.03828362244e-10
5.97019595551e-05
-1.12093126933e-09
5.97023381043e-05
-1.92201683801e-09
5.97029056113e-05
-3.11775951348e-09
5.97037447735e-05
-4.91460610119e-09
5.97049690671e-05
-7.63709009695e-09
5.97067429295e-05
-1.17850798628e-08
5.97093037924e-05
-1.8137939118e-08
5.9712994807e-05
-2.7916471748e-08
5.971830469e-05
-4.30439748861e-08
5.97259133822e-05
-6.65751357347e-08
5.97367221769e-05
-1.03384919196e-07
5.97517924674e-05
-1.61268152952e-07
5.97719613176e-05
-2.52678301921e-07
5.979663729e-05
-3.97447356978e-07
5.98206630796e-05
-6.26536316525e-07
5.98271571846e-05
-9.86220975971e-07
5.97740536862e-05
-1.5390057271e-06
5.95733549382e-05
-2.35312960776e-06
5.90670479148e-05
-3.4731483869e-06
-4.80678625453e-06
5.80945076274e-05
5.14373054492e-05
2.75268292647e-06
5.42658208031e-05
6.98138546683e-06
5.72496435751e-05
9.13182293109e-06
5.9790028032e-05
9.52529768171e-06
6.17201286144e-05
8.80246973295e-06
6.30883036516e-05
7.53197938095e-06
6.40167172999e-05
6.10987717989e-06
6.46292371869e-05
4.76545059563e-06
6.50258042371e-05
3.60565332448e-06
6.52790789038e-05
2.6616945e-06
6.54389740407e-05
1.92403999142e-06
6.55386909562e-05
1.36492178165e-06
6.55999295768e-05
9.51298259583e-07
6.56367444741e-05
6.51504412423e-07
6.56581956557e-05
4.38129731111e-07
6.56701039611e-05
2.88827212311e-07
6.56761932833e-05
1.8609422125e-07
6.56788296746e-05
1.16618900811e-07
6.56795001956e-05
7.05081093211e-08
6.56791240684e-05
4.05502365038e-08
6.56782567446e-05
2.1577675909e-08
6.56772258906e-05
9.94792191706e-09
6.56762166914e-05
3.13411573926e-09
6.56753074468e-05
-6.0933343245e-10
6.56745387783e-05
-2.45881904916e-09
6.56739104345e-05
-3.1646488689e-09
6.5673411541e-05
-3.22733457309e-09
6.56730246329e-05
-2.9576213308e-09
6.56727307226e-05
-2.54357379884e-09
6.56725116462e-05
-2.09414751966e-09
6.56723512914e-05
-1.66796855994e-09
6.56722359842e-05
-1.29280716947e-09
6.56721535845e-05
-9.78279680939e-10
6.56720934721e-05
-7.23300263942e-10
6.56720498724e-05
-5.20348529432e-10
6.56720185533e-05
-3.6137823308e-10
6.5671993383e-05
-2.37202674291e-10
6.56719716955e-05
-1.4396507456e-10
6.56719566247e-05
-7.5501466885e-11
6.56719547398e-05
-2.74365683582e-11
6.56719530184e-05
8.37431102905e-12
6.56719454198e-05
4.50618680878e-11
6.56719350247e-05
7.01261313138e-11
6.56719221894e-05
9.03693394463e-11
6.56719077754e-05
1.08181356766e-10
6.56718917906e-05
1.24674751548e-10
6.56718740717e-05
1.40416572894e-10
6.56718545388e-05
1.5553939493e-10
6.56718338243e-05
1.69318689857e-10
6.56718138085e-05
1.80207750764e-10
6.56717933388e-05
1.90519655249e-10
6.56717729722e-05
1.97259651622e-10
6.56717537981e-05
1.97998208251e-10
6.56717376126e-05
1.8948338535e-10
6.56717278958e-05
1.67053025141e-10
6.56717319641e-05
1.24521093641e-10
6.56717394168e-05
5.90155762798e-11
6.5671763e-05
-6.70956565155e-11
6.56718289999e-05
-3.22218675991e-10
6.56719214385e-05
-6.97031815224e-10
6.56720650406e-05
-1.2652926281e-09
6.56722662255e-05
-2.12394808604e-09
6.56725410587e-05
-3.39330324314e-09
6.56729057991e-05
-5.27999238256e-09
6.56733708691e-05
-8.1027225387e-09
6.56739331645e-05
-1.23478513358e-08
6.56745618124e-05
-1.87669861854e-08
6.56751699111e-05
-2.85249102394e-08
6.56755546127e-05
-4.34289542197e-08
6.56752863285e-05
-6.630703289e-08
6.56734943914e-05
-1.01593066302e-07
6.56684393903e-05
-1.56213158599e-07
6.56565800794e-05
-2.40818941466e-07
6.56307780265e-05
-3.71645159235e-07
6.55768654503e-05
-5.7262346935e-07
6.54675785707e-05
-8.76933927784e-07
6.52536919885e-05
-1.32511889049e-06
6.48550476929e-05
-1.9544854198e-06
6.41589720954e-05
-2.77707222835e-06
-3.72272663284e-06
6.30749122405e-05
5.10850424402e-05
1.66764055891e-06
5.36118447917e-05
4.45458326253e-06
5.66873168274e-05
6.05635101283e-06
5.96894469535e-05
6.5231676746e-06
6.22997276688e-05
6.19218912667e-06
6.4413689342e-05
5.41801781855e-06
6.60471855988e-05
4.47638103237e-06
6.7268617268e-05
3.54401903488e-06
6.81598964422e-05
2.71437425898e-06
6.87977631947e-05
2.02382785203e-06
6.92467477423e-05
1.47505554094e-06
6.95579667641e-05
1.0537028477e-06
6.97704336453e-05
7.3883145622e-07
6.99131769357e-05
5.08761190067e-07
7.00073883022e-05
3.43918424985e-07
7.00682981588e-05
2.27917410496e-07
7.01067005103e-05
1.47691919838e-07
7.01301431517e-05
9.31763042581e-08
7.01438326166e-05
5.68186826023e-08
7.01513090497e-05
3.3073832997e-08
7.01549418438e-05
1.794490096e-08
7.01562899216e-05
8.59985099356e-09
7.01563620848e-05
3.06194578135e-09
7.01557702957e-05
-1.75643042897e-11
7.0154909655e-05
-1.59820957765e-09
7.015398626e-05
-2.24129426557e-09
7.01531178215e-05
-2.35894508103e-09
7.01523579983e-05
-2.19785639902e-09
7.01517239976e-05
-1.9096409048e-09
7.01512129659e-05
-1.58319220181e-09
7.01508119742e-05
-1.26706155928e-09
7.01505040681e-05
-9.84995059716e-10
7.01502716067e-05
-7.45924240873e-10
7.01500984222e-05
-5.50234581258e-10
7.01499715197e-05
-3.93576492164e-10
7.01498802506e-05
-2.70250130993e-10
7.0149817519e-05
-1.7462212333e-10
7.01497758686e-05
-1.02475860421e-10
7.01497471989e-05
-4.70033443054e-11
7.01497170475e-05
2.5297604474e-12
7.01496935234e-05
3.16942899096e-11
7.01496803615e-05
5.79964447462e-11
7.01496696523e-05
8.05877734501e-11
7.01496595098e-05
1.00252625601e-10
7.01496491895e-05
1.18238369706e-10
7.01496383103e-05
1.35288063216e-10
7.01496267287e-05
1.51726328395e-10
7.01496144682e-05
1.67515916723e-10
7.01496011958e-05
1.8228530732e-10
7.01495856386e-05
1.95425978475e-10
7.01495697453e-05
2.06035119933e-10
7.01495542533e-05
2.12332199605e-10
7.01495399075e-05
2.11875139984e-10
7.01495273385e-05
2.01522598489e-10
7.0149516286e-05
1.77505036735e-10
7.01495043855e-05
1.35757024942e-10
7.01494910387e-05
7.16466130009e-11
7.01494831732e-05
-5.99773058804e-11
7.01494866187e-05
-3.26426324749e-10
7.0149503786e-05
-7.14959802608e-10
7.01495209833e-05
-1.28324409771e-09
7.01495156468e-05
-2.11934670335e-09
7.0149460402e-05
-3.3387508924e-09
7.01493015419e-05
-5.12175929984e-09
7.01489394659e-05
-7.74119633392e-09
7.01481979728e-05
-1.16068265758e-08
7.01467746741e-05
-1.73440797161e-08
7.01441560305e-05
-2.59065984088e-08
7.01394645458e-05
-3.87377284426e-08
7.01312154102e-05
-5.8058064964e-08
7.01169172002e-05
-8.72949282879e-08
7.00924036503e-05
-1.3169959592e-07
7.00505709812e-05
-1.98986222063e-07
6.997942558e-05
-3.00499592394e-07
6.98589693486e-05
-4.52166944532e-07
6.9656704116e-05
-6.74668486345e-07
6.93226277884e-05
-9.91042204906e-07
6.87870438379e-05
-1.4189014263e-06
6.79671304073e-05
-1.95715840655e-06
-2.56004797787e-06
6.68044517195e-05
5.08804132743e-05
7.87227357471e-07
5.31704664207e-05
2.16453026532e-06
5.62177500959e-05
3.00906745491e-06
5.94382702146e-05
3.30264767304e-06
6.24449701336e-05
3.18548931376e-06
6.50382536517e-05
2.82473440795e-06
6.71548673184e-05
2.35976747143e-06
6.88135659084e-05
1.88532055019e-06
7.00731720055e-05
1.45476826759e-06
7.10056690629e-05
1.09133089723e-06
7.16812654464e-05
7.99459253518e-07
7.21614248914e-05
5.73543490287e-07
7.24966059039e-05
4.03650521365e-07
7.27264825392e-05
2.78884622946e-07
7.28812815159e-05
1.89119508633e-07
7.29834713485e-05
1.25727632537e-07
7.30494152096e-05
8.17481090392e-08
7.30908173962e-05
5.17741635742e-08
7.31159114167e-05
3.17247019416e-08
7.31303960032e-05
1.85892778876e-08
7.31381507795e-05
1.01901450438e-08
7.31417712612e-05
4.97937644289e-09
7.31429589975e-05
1.87420313713e-09
7.31428126301e-05
1.2878498393e-10
7.3141989408e-05
-7.75015193408e-10
7.31409064996e-05
-1.15842297547e-09
7.31397916183e-05
-1.24411138094e-09
7.31387641709e-05
-1.17046842725e-09
7.31378766135e-05
-1.02215440883e-09
7.31371428599e-05
-8.49518986363e-10
7.31365555295e-05
-6.79819833094e-10
7.3136097232e-05
-5.2679573314e-10
7.31357470966e-05
-3.95897525284e-10
7.31354844929e-05
-2.87750257083e-10
7.31352910779e-05
-2.00291180559e-10
7.31351512214e-05
-1.30534447194e-10
7.31350516668e-05
-7.52195911429e-11
7.31349798702e-05
-3.08410270732e-11
7.31349266003e-05
6.09597648624e-12
7.31348966734e-05
3.22733019223e-11
7.31348733314e-05
5.48328384454e-11
7.31348562908e-05
7.48099675242e-11
7.31348436662e-05
9.29675748081e-11
7.31348336617e-05
1.10004892862e-10
7.31348250121e-05
1.26634895023e-10
7.31348168285e-05
1.43215617026e-10
7.31348084852e-05
1.5980377999e-10
7.31347995408e-05
1.76175920856e-10
7.31347897238e-05
1.91790041048e-10
7.31347789802e-05
2.05823174615e-10
7.31347673535e-05
2.17278200689e-10
7.3134754889e-05
2.24370520061e-10
7.31347416635e-05
2.24622773833e-10
7.31347278307e-05
2.14814407157e-10
7.31347137864e-05
1.90944121693e-10
7.31347003123e-05
1.48563082566e-10
7.31346860838e-05
8.51554053901e-11
7.31346598162e-05
-3.44636486141e-11
7.31346154574e-05
-2.82830836999e-10
7.31345456245e-05
-6.45884514537e-10
7.3134427084e-05
-1.16544928286e-09
7.31342163133e-05
-1.90929743998e-09
7.31338447987e-05
-2.96791303514e-09
7.31331971076e-05
-4.47468142705e-09
7.3132079541e-05
-6.62417281185e-09
7.31301688927e-05
-9.69664373244e-09
7.31269375447e-05
-1.41131261386e-08
7.31215277636e-05
-2.04971478805e-08
7.31125219651e-05
-2.97321897129e-08
7.30976109598e-05
-4.31472362821e-08
7.30730846902e-05
-6.27687008041e-08
7.30330278831e-05
-9.1642714965e-08
7.29679052988e-05
-1.33863514027e-07
7.28626679146e-05
-1.95261976252e-07
7.26940982161e-05
-2.83596900276e-07
7.242761322e-05
-4.0818321098e-07
7.20147209296e-05
-5.78149494691e-07
7.13940213566e-05
-7.98201643261e-07
7.0499662508e-05
-1.06279919152e-06
-1.34698473384e-06
6.92865993576e-05
5.07871726825e-05
5.47488292124e-11
5.29516501015e-05
5.29977309707e-11
5.59606888351e-05
2.88383014018e-11
5.92633224021e-05
1.42218427617e-11
6.24488090413e-05
2.77870568274e-12
6.52735496327e-05
-6.07888374161e-12
6.7633329189e-05
-1.19823695191e-11
6.95186647715e-05
-1.49297187661e-11
7.09734485061e-05
-1.53638825233e-11
7.20647933865e-05
-1.38821345513e-11
7.28642638527e-05
-1.11164384898e-11
7.34378151527e-05
-7.72097939365e-12
7.38414701089e-05
-4.3555523215e-12
7.41203564672e-05
-1.66591695829e-12
7.43094762741e-05
-2.37212070379e-13
7.44352044384e-05
-4.7660467957e-13
7.45169552293e-05
-2.63093953001e-12
7.45687358962e-05
-6.45653578342e-12
7.46004719537e-05
-1.13145927989e-11
7.46190774874e-05
-1.62237323583e-11
7.46292877082e-05
-2.00553224774e-11
7.46342888065e-05
-2.17140599579e-11
7.46361837392e-05
-2.07335693441e-11
7.46363309e-05
-1.83898780449e-11
7.46355717168e-05
-1.58555627096e-11
7.46344259554e-05
-1.26959892251e-11
7.463319088e-05
-9.08408851574e-12
7.46320254428e-05
-5.09380319191e-12
7.46310034436e-05
-2.30302818596e-13
7.46301499746e-05
3.86566979313e-12
7.46294615209e-05
8.54112390554e-12
7.46289210887e-05
1.35357788259e-11
7.46285062764e-05
1.88054453283e-11
7.46281939936e-05
2.44141383541e-11
7.46279630284e-05
3.05444392032e-11
7.46277950333e-05
3.73180711439e-11
7.46276748435e-05
4.48156478509e-11
7.4627590818e-05
5.30218128851e-11
7.46275347784e-05
6.19659521674e-11
7.46274955727e-05
7.1296595698e-11
7.46274692253e-05
8.09771683204e-11
7.46274518853e-05
9.19251317664e-11
7.46274405684e-05
1.04045925781e-10
7.46274330515e-05
1.17279108325e-10
7.46274278003e-05
1.31641872983e-10
7.46274237405e-05
1.47023792966e-10
7.46274201136e-05
1.63163737238e-10
7.46274163697e-05
1.79629140018e-10
7.46274120713e-05
1.95766878582e-10
7.4627406863e-05
2.10676741029e-10
7.46274005583e-05
2.23193429078e-10
7.46273929264e-05
2.3157362167e-10
7.4627383579e-05
2.33489397402e-10
7.46273718507e-05
2.26002489801e-10
7.46273566011e-05
2.05587720179e-10
7.46273361019e-05
1.68391402411e-10
7.46273092876e-05
1.11242692636e-10
7.46272643165e-05
9.74968248682e-12
7.46271739587e-05
-1.93234655521e-10
7.46270362293e-05
-5.08905042363e-10
7.46268113095e-05
-9.4126397747e-10
7.46264381741e-05
-1.53687392409e-09
7.46258200894e-05
-2.35050057468e-09
7.46247998629e-05
-3.45506978389e-09
7.46231218345e-05
-4.94667886696e-09
7.46203676134e-05
-6.94287569517e-09
7.46158718239e-05
-9.61773794422e-09
7.46085734204e-05
-1.31990991396e-08
7.45967291589e-05
-1.78882207531e-08
7.45775336019e-05
-2.39518493831e-08
7.45465761286e-05
-3.18112340008e-08
7.44970984978e-05
-4.21649870913e-08
7.44183424861e-05
-5.51073648952e-08
7.42938786549e-05
-7.07978989594e-08
7.40992753944e-05
-8.89933160654e-08
7.37996303985e-05
-1.08537916516e-07
7.33481481925e-05
-1.26666892427e-07
7.2688150936e-05
-1.38204170927e-07
7.17613093365e-05
-1.35957290918e-07
-1.11414657692e-07
7.05257394212e-05
5.07871716475e-05
-7.87116822781e-07
5.29516492473e-05