/*--------------------------------*- C++ -*----------------------------------*\
| =========                 |                                                 |
| \\      /  F ield         | OpenFOAM: The Open Source CFD Toolbox           |
|  \\    /   O peration     | Version:  2106                                  |
|   \\  /    A nd           | Website:  www.openfoam.com                      |
|    \\/     M anipulation  |                                                 |
\*---------------------------------------------------------------------------*/
FoamFile
{
    version     2.0;
    format      ascii;
    arch        "LSB;label=32;scalar=64";
    class       surfaceScalarField;
    location    "0.235";
    object      phi;
}
// * * * * * * * * * * * * * * * * * * * * * * * * * * * * * * * * * * * * * //

dimensions      [0 3 -1 0 0 0 0];

oriented        oriented;

internalField   nonuniform List<scalar> 
22100
(
3.38461203395e-05
1.61538796653e-05
2.24572098411e-05
1.13889104499e-05
1.62585529244e-05
6.19865688359e-06
1.27977759039e-05
3.46077698816e-06
1.08046419834e-05
1.99313388512e-06
9.60458892216e-06
1.20005303452e-06
8.85132113216e-06
7.53267763836e-07
8.36435228956e-06
4.86968814476e-07
8.04433438904e-06
3.20017878253e-07
7.83283957745e-06
2.11494789781e-07
7.69339639614e-06
1.39443158903e-07
7.6022394892e-06
9.11568862207e-08
7.54347668016e-06
5.87627877412e-08
7.5063397269e-06
3.71369291318e-08
7.48350016731e-06
2.28395330798e-08
7.46997928139e-06
1.35208579782e-08
7.46241458125e-06
7.56467076705e-09
7.45854645346e-06
3.86809715687e-09
7.45682738719e-06
1.71903565379e-09
7.4564206543e-06
4.06703006851e-10
7.45677037902e-06
-3.4975442516e-10
7.45745646716e-06
-6.86116077454e-10
7.45821472621e-06
-7.58285920487e-10
7.45893995627e-06
-7.25255343939e-10
7.4595842046e-06
-6.44271093467e-10
7.46012809061e-06
-5.43905845799e-10
7.46057016951e-06
-4.4209664266e-10
7.46091889553e-06
-3.48742920436e-10
7.46118717532e-06
-2.68297648771e-10
7.46138909403e-06
-2.01939212029e-10
7.46153802694e-06
-1.48954430137e-10
7.46164568344e-06
-1.07679209867e-10
7.46172179493e-06
-7.61338324564e-11
7.46177449259e-06
-5.27165544155e-11
7.46180773417e-06
-3.32562696935e-11
7.46182650644e-06
-1.87847128694e-11
7.46183557139e-06
-9.07819350299e-12
7.46183836605e-06
-2.8049256684e-12
7.46183683095e-06
1.52500911972e-12
7.46183210019e-06
4.71800904995e-12
7.46182510507e-06
6.97959508008e-12
7.46181644458e-06
8.63868076629e-12
7.46180648133e-06
9.93162431765e-12
7.46179538353e-06
1.10539663813e-11
7.46178314818e-06
1.2175423285e-11
7.46176965067e-06
1.34204095155e-11
7.46175465915e-06
1.48896382335e-11
7.46173784932e-06
1.6681095507e-11
7.46171879409e-06
1.88992926831e-11
7.46169696023e-06
2.16460448267e-11
7.46167174657e-06
2.49954610938e-11
7.46164246096e-06
2.90405964749e-11
7.46160832491e-06
3.3873611744e-11
7.46156848214e-06
3.95683469754e-11
7.46152205547e-06
4.61488775521e-11
7.46146822288e-06
5.35632717732e-11
7.4614062622e-06
6.17085882645e-11
7.46133601752e-06
7.00154881467e-11
7.46125818622e-06
7.76324891248e-11
7.46117516695e-06
8.28680473043e-11
7.46109307706e-06
8.19945006427e-11
7.46102425269e-06
6.87701519564e-11
7.4609765643e-06
4.76888116717e-11
7.46096891843e-06
7.69798294327e-12
7.46103719073e-06
-6.81876864229e-11
7.46123952946e-06
-2.02246164496e-10
7.46167042979e-06
-4.30807625873e-10
7.46248001885e-06
-8.09485719774e-10
7.46390372482e-06
-1.42359821905e-09
7.46629742034e-06
-2.39359578638e-09
7.47011133574e-06
-3.8138421885e-09
7.47655677782e-06
-6.44540613979e-09
7.48732875845e-06
-1.07719712761e-08
7.50551256061e-06
-1.8183782952e-08
7.53872227552e-06
-3.32096635026e-08
7.60799610278e-06
-6.92737541877e-08
7.77480869002e-06
-1.66812473152e-07
8.23014364211e-06
-4.55334777134e-07
9.69921520438e-06
-1.46907160742e-06
-5.45771879381e-06
1.51569339476e-05
5.02175948848e-05
1.59362847365e-05
4.42441116721e-05
1.73623935893e-05
3.77795015704e-05
1.26632669234e-05
3.26461441041e-05
8.59413440281e-06
2.89380919864e-05
5.70118594702e-06
2.63596215817e-05
3.77852338898e-06
2.45875171663e-05
2.52537213707e-06
2.33734751019e-05
1.70101083521e-06
2.25435260534e-05
1.14996688504e-06
2.19782173752e-05
7.76803427207e-07
2.159551486e-05
5.22145632672e-07
2.13387383145e-05
3.47933390808e-07
2.11684968152e-05
2.29004246447e-07
2.10573392303e-05
1.48294472713e-07
2.09861513434e-05
9.40273785374e-08
2.09416789967e-05
5.7993163496e-08
2.09147972208e-05
3.44464060422e-08
2.08992981683e-05
1.93671090467e-08
2.08910744324e-05
9.94273430328e-09
2.08872741951e-05
4.20690673854e-09
2.08862052159e-05
7.19191603084e-10
2.08864509377e-05
-9.31871138481e-10
2.08873223655e-05
-1.62974492241e-09
2.08884618512e-05
-1.86477129737e-09
2.08896351644e-05
-1.81761213906e-09
2.08907181413e-05
-1.62690647921e-09
2.0891655725e-05
-1.37970050024e-09
2.08924332412e-05
-1.12627866242e-09
2.08930584551e-05
-8.93531926693e-10
2.08935505824e-05
-6.94091230772e-10
2.08939343979e-05
-5.32796278751e-10
2.08942359023e-05
-4.09208805689e-10
2.08944468432e-05
-2.87096468182e-10
2.08945938623e-05
-1.99754937995e-10
2.08946942017e-05
-1.33609998721e-10
2.08947595465e-05
-8.41406308579e-11
2.08948000636e-05
-4.96080818744e-11
2.08948239208e-05
-2.66783145817e-11
2.08948359315e-05
-1.05030559901e-11
2.08948390264e-05
1.59837235045e-12
2.08948356163e-05
1.03535061674e-11
2.08948273579e-05
1.68437456784e-11
2.08948153834e-05
2.1828873702e-11
2.08948003998e-05
2.59319824468e-11
2.08947827642e-05
2.96661521417e-11
2.08947626082e-05
3.33913154915e-11
2.08947399061e-05
3.73617084684e-11
2.08947145242e-05
4.17811905811e-11
2.08946862434e-05
4.68471447539e-11
2.08946547955e-05
5.27123174096e-11
2.08946199583e-05
5.9404835458e-11
2.08945815811e-05
6.69494697805e-11
2.08945396769e-05
7.52912188292e-11
2.08944945456e-05
8.42155272568e-11
2.08944470195e-05
9.32099613562e-11
2.08943988722e-05
1.01272673272e-10
2.08943532748e-05
1.06910029136e-10
2.08943161035e-05
1.06856606679e-10
2.08942967974e-05
9.66796394658e-11
2.08943104375e-05
6.90427962428e-11
2.0894383436e-05
8.90631758803e-12
2.08945650918e-05
-1.12881910181e-10
2.08949234808e-05
-3.10622689222e-10
2.08955765889e-05
-6.45282217289e-10
2.08966349742e-05
-1.12642579756e-09
2.08982726496e-05
-1.83976972978e-09
2.09008478829e-05
-3.00588376246e-09
2.09049090108e-05
-4.87044912232e-09
2.09113259737e-05
-7.84041246543e-09
2.09215239379e-05
-1.25914477295e-08
2.09379958155e-05
-2.02856545125e-08
2.09648930517e-05
-3.334260906e-08
2.10091636273e-05
-5.5042499601e-08
2.10839983493e-05
-9.30184334885e-08
2.12153579071e-05
-1.64569227037e-07
2.14562221197e-05
-3.10138119091e-07
2.1914607677e-05
-6.25198184054e-07
2.28027978385e-05
-1.34352486362e-06
2.4449348185e-05
-3.11562159405e-06
-7.04857259737e-06
2.60401989734e-05
5.35171053478e-05
1.24191793564e-05
5.29349683422e-05
1.79445305359e-05
4.96538401474e-05
1.59443950612e-05
4.58401814697e-05
1.24077930325e-05
4.24400924391e-05
9.10127493241e-06
3.97291724458e-05
6.4894433392e-06
3.76873059342e-05
4.56723860773e-06
3.61976630705e-05
3.19065366046e-06
3.51326124021e-05
2.21501751947e-06
3.43823673155e-05
1.52704847948e-06
3.38606262984e-05
1.04388661377e-06
3.35023460247e-05
7.06213627554e-07
3.32596010932e-05
4.7174913935e-07
3.30975907612e-05
3.10304763612e-07
3.29913346613e-05
2.00283434145e-07
3.29230927586e-05
1.26235020912e-07
3.28804047804e-05
7.71343385884e-08
3.28546196094e-05
4.51522343294e-08
3.28397924636e-05
2.47698342026e-08
3.28318659105e-05
1.21334175642e-08
3.28279963843e-05
4.58867733375e-09
3.2826997685e-05
6.67896306778e-11
3.28271783997e-05
-1.81049519405e-09
3.28280267464e-05
-2.71315095861e-09
3.28291424434e-05
-2.93333990898e-09
3.28302896069e-05
-2.77409887353e-09
3.28313454872e-05
-2.43560937427e-09
3.28322557761e-05
-2.03659755933e-09
3.28330056234e-05
-1.64340949439e-09
3.28336011108e-05
-1.28961105102e-09
3.28340571853e-05
-9.8890454076e-10
3.283439196e-05
-7.44013461438e-10
3.28346581201e-05
-5.53280755734e-10
3.283487423e-05
-4.15887327055e-10
3.28350212037e-05
-2.80601846086e-10
3.28351201908e-05
-1.831425136e-10
3.2835185811e-05
-1.15242361451e-10
3.28352274858e-05
-6.83695722106e-11
3.28352520905e-05
-3.5127198562e-11
3.28352635856e-05
-9.9219332266e-12
3.28352655232e-05
8.38036661216e-12
3.28352603903e-05
2.19261401746e-11
3.28352500031e-05
3.21460241397e-11
3.28352355802e-05
4.02619951353e-11
3.28352178631e-05
4.72581284555e-11
3.28351973089e-05
5.37826882022e-11
3.28351742058e-05
6.02610875022e-11
3.28351487355e-05
6.69999165198e-11
3.28351209524e-05
7.43268253238e-11
3.28350908899e-05
8.24261755775e-11
3.28350588542e-05
9.10539439665e-11
3.28350254233e-05
9.99627999208e-11
3.28349916036e-05
1.08679706983e-10
3.28349591269e-05
1.16262916725e-10
3.28349309527e-05
1.20970275185e-10
3.28349118358e-05
1.20000539147e-10
3.28349084997e-05
1.09893476162e-10
3.28349322565e-05
8.28079980983e-11
3.28350003784e-05
2.83287245573e-11
3.28351422862e-05
-7.30279400602e-11
3.28354092487e-05
-2.58133824853e-10
3.28358893971e-05
-5.93026995909e-10
3.28366007485e-05
-1.02190618701e-09
3.28376346961e-05
-1.67913020128e-09
3.28392474723e-05
-2.73908062444e-09
3.28418176001e-05
-4.40976117126e-09
3.28458488361e-05
-7.03696923574e-09
3.28521558954e-05
-1.11773471056e-08
3.28620526885e-05
-1.7737058602e-08
3.28777056049e-05
-2.82442561424e-08
3.29027790239e-05
-4.53590069466e-08
3.29426311222e-05
-7.31946488033e-08
3.30071043334e-05
-1.19515601442e-07
3.31132054778e-05
-1.99119404989e-07
3.32899929099e-05
-3.41356459878e-07
3.35857550172e-05
-6.05899998829e-07
3.40717237072e-05
-1.11116673935e-06
3.48142828956e-05
-2.08608396765e-06
3.56774949659e-05
-3.97883155636e-06
-7.11964941408e-06
3.57485787322e-05
5.35105664667e-05
8.90861285386e-06
5.55742222363e-05
1.5880874706e-05
5.52424825205e-05
1.62761347245e-05
5.35977859778e-05
1.40524895286e-05
5.15418477195e-05
1.11572131444e-05
4.95802799507e-05
8.45101106681e-06
4.79243509248e-05
6.2231675938e-06
4.6618139044e-05
4.49686550154e-06
4.5630466239e-05
3.20269028918e-06
4.49051172887e-05
2.25239739508e-06
4.43840900988e-05
1.5649137689e-06
4.40166939494e-05
1.07360974198e-06
4.37619674573e-05
7.26475595649e-07
4.35882688525e-05
4.84003331002e-07
4.34718694952e-05
3.16682751685e-07
4.33953594274e-05
2.02745047438e-07
4.33461891563e-05
1.26304570408e-07
4.33154515533e-05
7.58897987027e-08
4.32969151951e-05
4.33061537365e-08
4.32862891377e-05
2.27594383027e-08
4.32806863055e-05
1.01914741717e-08
4.3277878647e-05
2.87441346213e-09
4.32770508568e-05
-9.82737426652e-10
4.32772687608e-05
-2.93108428797e-09
4.32779563114e-05
-3.62091709206e-09
4.32788193783e-05
-3.63719080526e-09
4.327969219e-05
-3.30844562897e-09
4.32804896275e-05
-2.83406143179e-09
4.3281175338e-05
-2.32914784202e-09
4.3281741106e-05
-1.85540651244e-09
4.3282193768e-05
-1.44159556971e-09
4.3282546022e-05
-1.09629441957e-09
4.32828076204e-05
-8.14899558229e-10
4.32829828633e-05
-5.91148230928e-10
4.32831157585e-05
-4.13514051458e-10
4.3283200998e-05
-2.68396095976e-10
4.32832548978e-05
-1.69155740435e-10
4.32832946046e-05
-1.08089692479e-10
4.32833189237e-05
-5.94599686832e-11
4.32833308488e-05
-2.18671194565e-11
4.32833337906e-05
5.40817482675e-12
4.32833297004e-05
2.59699477352e-11
4.32833202784e-05
4.15005415185e-11
4.32833066753e-05
5.37737277473e-11
4.32832895275e-05
6.42849904395e-11
4.32832692554e-05
7.389593524e-11
4.32832461815e-05
8.31357424885e-11
4.32832205841e-05
9.23560136437e-11
4.32831928252e-05
1.01793387105e-10
4.32831634551e-05
1.1145846619e-10
4.32831330973e-05
1.21035308271e-10
4.32831027143e-05
1.29941912135e-10
4.32830737746e-05
1.37201543336e-10
4.32830483961e-05
1.41224571159e-10
4.32830295209e-05
1.39444520196e-10
4.32830214277e-05
1.27720764285e-10
4.32830318638e-05
9.91184503817e-11
4.32830727475e-05
4.1634549954e-11
4.32831632279e-05
-6.23649701286e-11
4.32833217769e-05
-2.31734778906e-10
4.32835525238e-05
-4.88962851646e-10
4.32839889941e-05
-1.02949741035e-09
4.32847490947e-05
-1.78195568358e-09
4.32859908783e-05
-2.92083195999e-09
4.32879208823e-05
-4.66898732006e-09
4.32908883377e-05
-7.3771023607e-09
4.32954527166e-05
-1.16012230915e-08
4.33024929169e-05
-1.8217407549e-08
4.33133919092e-05
-2.86359025187e-08
4.33303095321e-05
-4.51617617625e-08
4.3356558836e-05
-7.16082419698e-08
4.33977171456e-05
-1.14352916774e-07
4.34626481606e-05
-1.84446600716e-07
4.35650979515e-05
-3.01569250625e-07
4.37250583222e-05
-5.01316911457e-07
4.39671851615e-05
-8.48026899394e-07
4.43082275777e-05
-1.45220961615e-06
4.47095654568e-05
-2.48742287031e-06
4.49302383025e-05
-4.19950576931e-06
-6.59164760709e-06
4.44022398612e-05
5.27351379959e-05
6.17347482457e-06
5.57309344126e-05
1.2885078231e-05
5.73114742238e-05
1.46955948596e-05
5.76109917181e-05
1.3752971989e-05
5.71335225632e-05
1.16346822528e-05
5.6319468092e-05
9.26506549728e-06
5.54489880046e-05
7.09364764322e-06
5.46629775462e-05
5.28287592068e-06
5.4013682102e-05
3.85198569811e-06
5.35061508972e-05
2.75992856434e-06
5.31242551196e-05
1.94680951025e-06
5.28449857327e-05
1.35287909194e-06
5.26454396613e-05
9.26021629068e-07
5.25057156062e-05
6.23727346644e-07
5.24097210379e-05
4.12677279308e-07
5.23450152357e-05
2.6745080665e-07
5.23022776247e-05
1.69042139484e-07
5.22746906702e-05
1.03476714249e-07
5.22573663178e-05
6.0630467736e-08
5.22468577967e-05
3.3267923169e-08
5.22407582127e-05
1.62910240622e-08
5.22374493898e-05
6.18320303296e-09
5.22359506981e-05
5.15921957155e-10
5.22354426535e-05
-2.42307042211e-09
5.22355074516e-05
-3.68574456942e-09
5.22358527146e-05
-3.9824822817e-09
5.22363067302e-05
-3.76248896818e-09
5.22367728631e-05
-3.30022309171e-09
5.22372000131e-05
-2.7563292525e-09
5.22375654619e-05
-2.2208842197e-09
5.22378625125e-05
-1.73867301632e-09
5.22380939552e-05
-1.32776306087e-09
5.22382700786e-05
-9.91043970704e-10
5.22384027994e-05
-7.23885602488e-10
5.22385029952e-05
-5.13726139663e-10
5.22385874735e-05
-3.52887983469e-10
5.22386528521e-05
-2.34546870132e-10
5.22386950381e-05
-1.50288169462e-10
5.22387276596e-05
-9.20946063107e-11
5.22387429463e-05
-3.71731990642e-11
5.22387480453e-05
2.79320667119e-13
5.22387455211e-05
2.84506982572e-11
5.22387373063e-05
4.96505623842e-11
5.2238724737e-05
6.62538390294e-11
5.22387086707e-05
8.0232370116e-11
5.22386896762e-05
9.2733846097e-11
5.22386682678e-05
1.04341577307e-10
5.22386452866e-05
1.15091551579e-10
5.22386208632e-05
1.25923081647e-10
5.22385938588e-05
1.38122865697e-10
5.22385657917e-05
1.4872527871e-10
5.22385377323e-05
1.57597108403e-10
5.22385112073e-05
1.63309360315e-10
5.22384886224e-05
1.6339368498e-10
5.22384744621e-05
1.53206478618e-10
5.22384811661e-05
1.20651448544e-10
5.22385089846e-05
7.0972795682e-11
5.22385795709e-05
-2.92334835007e-11
5.22386957909e-05
-1.78801884451e-10
5.2238881892e-05
-4.17980940801e-10
5.22392148639e-05
-8.22015705695e-10
5.22397225064e-05
-1.53714078278e-09
5.2240483826e-05
-2.54323045515e-09
5.22416305262e-05
-4.06747077612e-09
5.22433654508e-05
-6.40383413993e-09
5.2245989761e-05
-1.00013047549e-08
5.22499551192e-05
-1.55664508441e-08
5.2255952511e-05
-2.42146450382e-08
5.22650409971e-05
-3.77242202392e-08
5.22788391062e-05
-5.89597165943e-08
5.22998075588e-05
-9.25765459987e-08
5.23316669547e-05
-1.46212155284e-07
5.23797699476e-05
-2.32549502085e-07
5.24510588665e-05
-3.72858193958e-07
5.25524229909e-05
-6.02681035113e-07
5.2684442738e-05
-9.80046406296e-07
5.28249272569e-05
-1.59269387042e-06
5.28923844608e-05
-2.55488057208e-06
5.26741957584e-05
-3.98131877753e-06
-5.78254392391e-06
5.18650938534e-05
5.19834864581e-05
4.18998833255e-06
5.50586639316e-05
9.80990070276e-06
5.76386131313e-05
1.21156456056e-05
5.93259030515e-05
1.20656820244e-05
6.02280150598e-05
1.07325701985e-05
6.05929262203e-05
8.90015429528e-06
6.06482831174e-05
7.03829070872e-06
6.05531886314e-05
5.37797036878e-06
6.04029540295e-05
4.00222026602e-06
6.02479134939e-05
2.91496906569e-06
6.01107879341e-05
2.08393503498e-06
5.99990283805e-05
1.46463860983e-06
5.99125131742e-05
1.01253679803e-06
5.98479212499e-05
6.8831923307e-07
5.98010176473e-05
4.5958084212e-07
5.97677329564e-05
3.00735456808e-07
5.97445915563e-05
1.92183498694e-07
5.97288129635e-05
1.19255268976e-07
5.97182647641e-05
7.11786311202e-08
5.97113585204e-05
4.01741328975e-08
5.97069391192e-05
2.07103938393e-08
5.97042051691e-05
8.91712311226e-09
5.9702596079e-05
2.12498250616e-09
5.97016914823e-05
-1.51850322322e-09
5.97012331172e-05
-3.22740916741e-09
5.97010435196e-05
-3.79291456083e-09
5.9701007156e-05
-3.72615460056e-09
5.97010513674e-05
-3.34446320555e-09
5.97011324311e-05
-2.83742349397e-09
5.9701224681e-05
-2.31316428418e-09
5.97013142442e-05
-1.82826026273e-09
5.97013945028e-05
-1.40804477857e-09
5.97014640355e-05
-1.06059630968e-09
5.97015234432e-05
-7.83310785436e-10
5.97015735238e-05
-5.63823833999e-10
5.97016131706e-05
-3.92547143683e-10
5.97016408119e-05
-2.6219663941e-10
5.97016559594e-05
-1.65445379692e-10
5.97016541755e-05
-9.03231253505e-11
5.97016460359e-05
-2.90513808407e-11
5.97016393233e-05
6.96327875491e-12
5.97016299051e-05
3.78265221283e-11
5.97016193831e-05
6.01108588951e-11
5.97016075953e-05
7.79534685328e-11
5.97015934822e-05
9.4227452781e-11
5.97015768665e-05
1.09194824138e-10
5.97015577498e-05
1.23257806416e-10
5.97015359543e-05
1.36637788029e-10
5.97015122381e-05
1.49340631932e-10
5.97014889702e-05
1.61045773988e-10
5.97014662594e-05
1.71055101239e-10
5.97014453744e-05
1.78078577389e-10
5.97014280501e-05
1.80221174815e-10
5.97014160976e-05
1.74935555335e-10
5.9701409672e-05
1.59233800344e-10
5.97013993817e-05
1.30576616415e-10
5.97014006095e-05
6.94273634389e-11
5.97014111905e-05
-4.00879599282e-11
5.97014831186e-05
-2.50934372559e-10
5.97016640429e-05
-5.99046834199e-10
5.97019570478e-05
-1.11510017582e-09
5.97023350194e-05
-1.91513338354e-09
5.9702901506e-05
-3.10969313396e-09
5.97037392119e-05
-4.90513691665e-09
5.97049615111e-05
-7.62607143297e-09
5.97067327764e-05
-1.17724639211e-08
5.97092903915e-05
-1.81239164697e-08
5.9712977396e-05
-2.79014784301e-08
5.97182824111e-05
-4.30290698967e-08
5.97258853397e-05
-6.65625197922e-08
5.9736687702e-05
-1.03378779472e-07
5.97517510782e-05
-1.61275352296e-07
5.97719129429e-05
-2.52711222522e-07
5.97965825937e-05
-3.97527778334e-07
5.9820603282e-05
-6.26701784254e-07
5.98270924256e-05
-9.86535722315e-07
5.97739775604e-05
-1.53957866901e-06
5.95732381643e-05
-2.35414105292e-06
5.90668014919e-05
-3.47488345586e-06
-4.80966587557e-06
5.80939242184e-05
5.14373053576e-05
2.75268294003e-06
5.42658205283e-05
6.98138547908e-06
5.7249643145e-05
9.13182293453e-06
5.97900274522e-05
9.52529767227e-06
6.17201278918e-05
8.80246971317e-06
6.30883027882e-05
7.53197935668e-06
6.40167163001e-05
6.10987715745e-06
6.46292360522e-05
4.76545057789e-06
6.50258029693e-05
3.6056533128e-06
6.52790775059e-05
2.66169449304e-06
6.5438972517e-05
1.92403998664e-06
6.55386893128e-05
1.3649217755e-06
6.55999278217e-05
9.51298249008e-07
6.56367426157e-05
6.51504397085e-07
6.56581937035e-05
4.38129713508e-07
6.56701019229e-05
2.88827197167e-07
6.56761911663e-05
1.86094215219e-07
6.56788274885e-05
1.16618909229e-07
6.56794979505e-05
7.05081333559e-08
6.56791217752e-05
4.05502741973e-08
6.56782544143e-05
2.15777231887e-08
6.56772235333e-05
9.94797403173e-09
6.56762143165e-05
3.1341695367e-09
6.56753050611e-05
-6.09277840462e-10
6.56745363927e-05
-2.45877158223e-09
6.56739080564e-05
-3.16461026523e-09
6.56734091765e-05
-3.22730768725e-09
6.567302229e-05
-2.95760741356e-09
6.56727284086e-05
-2.54357237334e-09
6.56725093701e-05
-2.09415556462e-09
6.56723490656e-05
-1.66798205339e-09
6.56722338216e-05
-1.29282270906e-09
6.56721514998e-05
-9.7829353502e-10
6.56720914816e-05
-7.23308265873e-10
6.56720479876e-05
-5.20346688569e-10
6.56720167865e-05
-3.61360696152e-10
6.56719917457e-05
-2.37166006544e-10
6.5671970201e-05
-1.43910132461e-10
6.5671955294e-05
-7.54291441037e-11
6.56719535755e-05
-2.73523094577e-11
6.56719520238e-05
8.4857754242e-12
6.56719445878e-05
4.52200136658e-11
6.5671934337e-05
7.03006379537e-11
6.5671921632e-05
9.05695439099e-11
6.56719073212e-05
1.08416842984e-10
6.56718914038e-05
1.24953463396e-10
6.56718737098e-05
1.4074968359e-10
6.56718541575e-05
1.55940799019e-10
6.56718334168e-05
1.69782226479e-10
6.56718133287e-05
1.80786094229e-10
6.56717927532e-05
1.91244327516e-10
6.56717722755e-05
1.98149050585e-10
6.56717530044e-05
1.99081287964e-10
6.56717367405e-05
1.90795199396e-10
6.56717269491e-05
1.68634004783e-10
6.56717308425e-05
1.2632754088e-10
6.56717391262e-05
6.08373818477e-11
6.5671761479e-05
-6.27012687648e-11
6.56718279833e-05
-3.17648672939e-10
6.56719202006e-05
-6.91394884417e-10
6.56720634433e-05
-1.25842740941e-09
6.56722640296e-05
-2.11575456411e-09
6.56725379102e-05
-3.38356130807e-09
6.56729012285e-05
-5.26842373218e-09
6.56733642832e-05
-8.08907145895e-09
6.56739238388e-05
-1.23319275126e-08
6.56745489173e-05
-1.87488419239e-08
6.56751522964e-05
-2.85046651123e-08
6.56755307125e-05
-4.3407303394e-08
6.56752540635e-05
-6.62857694372e-08
6.56734513016e-05
-1.01575967732e-07
6.56683816841e-05
-1.56205679151e-07
6.56565021874e-05
-2.40831742664e-07
6.56306716236e-05
-3.71697256704e-07
6.55767171617e-05
-5.72747378257e-07
6.54673651881e-05
-8.77184215867e-07
6.52533716536e-05
-1.32558523613e-06
6.48545420138e-05
-1.95531122202e-06
6.4158132659e-05
-2.77847507188e-06
-3.7250125161e-06
6.30734793792e-05
5.10850423473e-05
1.66764055694e-06
5.36118445142e-05
4.45458326011e-06
5.66873163936e-05
6.05635100253e-06
5.96894463687e-05
6.52316765242e-06
6.22997269411e-05
6.19218909579e-06
6.44136884746e-05
5.41801778341e-06
6.6047184595e-05
4.47638099875e-06
6.72686161292e-05
3.54401900657e-06
6.81598951692e-05
2.71437423742e-06
6.879776179e-05
2.02382783684e-06
6.92467462097e-05
1.47505552979e-06
6.95579651097e-05
1.05370283657e-06
6.97704318775e-05
7.38831441492e-07
6.99131750632e-05
5.08761169845e-07
7.00073863344e-05
3.43918400904e-07
7.00682961046e-05
2.27917387539e-07
7.01066983771e-05
1.47691904182e-07
7.01301409488e-05
9.3176301307e-08
7.01438303543e-05
5.68186942218e-08
7.01513067388e-05
3.30738581004e-08
7.01549394956e-05
1.79449366369e-08
7.0156287547e-05
8.59989359829e-09
7.0156359696e-05
3.06199118062e-09
7.01557678928e-05
-1.7504697699e-11
7.01549072545e-05
-1.59816446675e-09
7.01539838664e-05
-2.24125447761e-09
7.01531154404e-05
-2.35891606942e-09
7.01523556383e-05
-2.19783839657e-09
7.01517216684e-05
-1.90963353747e-09
7.01512106783e-05
-1.58319258262e-09
7.01508097403e-05
-1.26706685076e-09
7.01505018991e-05
-9.85002727815e-10
7.01502695145e-05
-7.45928448598e-10
7.01500964208e-05
-5.50229851765e-10
7.0149969622e-05
-3.93559918247e-10
7.01498784702e-05
-2.70219418014e-10
7.0149815871e-05
-1.74575460496e-10
7.01497743644e-05
-1.02411438122e-10
7.01497458401e-05
-4.69149376444e-11
7.01497158245e-05
2.64591556758e-12
7.01496924642e-05
3.18181266059e-11
7.01496794798e-05
5.81621705359e-11
7.01496689337e-05
8.07857310173e-11
7.01496589317e-05
1.00484130411e-10
7.01496487206e-05
1.18507790608e-10
7.01496379159e-05
1.35601234184e-10
7.01496263691e-05
1.52093463381e-10
7.01496141054e-05
1.67955229085e-10
7.01496007693e-05
1.82821571028e-10
7.01495851244e-05
1.96086538037e-10
7.01495691347e-05
2.06851135133e-10
7.01495535422e-05
2.13334161027e-10
7.01495391141e-05
2.13096066402e-10
7.01495265166e-05
2.02983714079e-10
7.01495155495e-05
1.79214896556e-10
7.01495039207e-05
1.376036689e-10
7.01494900781e-05
7.43801343291e-11
7.01494835047e-05
-5.63845441352e-11
7.01494863314e-05
-3.20686940015e-10
7.01495033269e-05
-7.08522090592e-10
7.0149520351e-05
-1.27553100698e-09
7.01495146328e-05
-2.11007823559e-09
7.01494586712e-05
-3.32759965406e-09
7.01492986251e-05
-5.1083421944e-09
7.01489347349e-05
-7.72512929131e-09
7.01481906063e-05
-1.15877142105e-08
7.01467637387e-05
-1.7321825535e-08
7.01441400168e-05
-2.58807502793e-08
7.01394412047e-05
-3.87082858794e-08
7.01311815695e-05
-5.80259682906e-08
7.01168689532e-05
-8.72632390764e-08
7.00923340215e-05
-1.31670716835e-07
7.00504692588e-05
-1.98967020661e-07
6.99792752046e-05
-3.00503270503e-07
6.98587439841e-05
-4.5221616263e-07
6.96563607789e-05
-6.74801318036e-07
6.93220957062e-05
-9.91320434069e-07
6.87862066979e-05
-1.41942209257e-06
6.79657967807e-05
-1.95806576104e-06
-2.56153989469e-06
6.68023240005e-05
5.08804131813e-05
7.87227339743e-07
5.31704661419e-05
2.16453024763e-06
5.62177496606e-05
3.00906743136e-06
5.94382696291e-05
3.30264763966e-06
6.24449694056e-05
3.18548927337e-06
6.50382527855e-05
2.82473436373e-06
6.71548663166e-05
2.3597674292e-06
6.88135647715e-05
1.885320514e-06
7.00731707334e-05
1.45476823909e-06
7.10056676574e-05
1.09133087658e-06
7.16812639108e-05
7.99459238187e-07
7.21614232323e-05
5.73543476105e-07
7.24966041298e-05
4.03650503623e-07
7.27264806592e-05
2.7888459855e-07
7.28812795399e-05
1.89119478259e-07
7.29834692854e-05
1.25727601555e-07
7.30494130669e-05
8.17480831702e-08
7.30908151829e-05
5.17741484472e-08
7.31159091434e-05
3.17247001693e-08
7.3130393681e-05
1.85892892168e-08
7.31381484199e-05
1.01901678107e-08
7.31417688755e-05
4.97940839585e-09
7.3142956593e-05
1.87424204876e-09
7.31428102242e-05
1.2883004367e-10
7.31419869975e-05
-7.74973500971e-10
7.3140904094e-05
-1.1583870726e-09
7.31397892261e-05
-1.24408347204e-09
7.31387618016e-05
-1.17044838253e-09
7.31378742794e-05
-1.02214282971e-09
7.31371405718e-05
-8.49514863809e-10
7.31365532974e-05
-6.79816832198e-10
7.31360950666e-05
-5.26792445428e-10
7.31357450072e-05
-3.95889290449e-10
7.31354824918e-05
-2.87731575377e-10
7.31352891798e-05
-2.00259550288e-10
7.31351494419e-05
-1.3048914519e-10
7.31350500184e-05
-7.5158781728e-11
7.31349783538e-05
-3.07555175959e-11
7.31349252445e-05
6.18173764525e-12
7.31348954715e-05
3.24000310534e-11
7.31348722788e-05
5.49824277613e-11
7.31348554038e-05
7.49946576667e-11
7.31348429427e-05
9.31867569652e-11
7.31348330834e-05
1.10257869863e-10
7.3134824549e-05
1.26922495259e-10
7.31348164469e-05
1.43543980515e-10
7.31348081474e-05
1.60186350859e-10
7.31347992075e-05
1.76635781566e-10
7.31347893645e-05
1.92355624192e-10
7.31347785724e-05
2.06526943166e-10
7.31347668863e-05
2.18152396548e-10
7.31347543659e-05
2.25447436692e-10
7.31347411018e-05
2.25938008606e-10
7.31347272693e-05
2.16410826656e-10
7.31347132467e-05
1.92858618136e-10
7.31346997e-05
1.50807099091e-10
7.31346863959e-05
8.73928685317e-11
7.31346601852e-05
-3.04174378816e-11
7.31346160833e-05
-2.76791744941e-10
7.31345463986e-05
-6.38968343063e-10
7.31344278922e-05
-1.15710356202e-09
7.31342170008e-05
-1.89922697627e-09
7.31338450852e-05
-2.95569022527e-09
7.31331965632e-05
-4.45980050521e-09
7.31320775544e-05
-6.606076822e-09
7.31301645884e-05
-9.67465911302e-09
7.31269301072e-05
-1.40871899187e-08
7.31215154385e-05
-2.04659125247e-08
7.31125020112e-05
-2.96946586212e-08
7.30975795228e-05
-4.3103283517e-08
7.30730369423e-05
-6.27204632234e-08
7.30329545088e-05
-9.15881558912e-08
7.29677917876e-05
-1.33804297057e-07
7.28624917533e-05
-1.952032149e-07
7.26938236852e-05
-2.83548080807e-07
7.24271834531e-05
-4.08161190583e-07
7.20140452829e-05
-5.78182526284e-07
7.13929579545e-05
-7.98334755905e-07
7.04979916439e-05
-1.06309982804e-06
-1.34754544265e-06
6.9283996994e-05
5.07871725896e-05
5.47154941304e-11
5.29516498225e-05
5.29650758854e-11
5.59606884002e-05
2.88013623161e-11
5.92633218188e-05
1.41780157652e-11
6.2448808316e-05
2.7318790761e-12
6.52735487711e-05
-6.13050041472e-12
6.76333281927e-05
-1.20292309614e-11
6.95186636397e-05
-1.49697111972e-11
7.09734472384e-05
-1.53955416564e-11
7.2064791984e-05
-1.3905840909e-11
7.28642623186e-05
-1.11350408975e-11
7.34378134933e-05
-7.73882643474e-12
7.3841468333e-05
-4.37740076016e-12
7.41203545846e-05
-1.69467705619e-12
7.43094742954e-05
-2.736561178e-13
7.44352023715e-05
-5.14065387167e-13
7.45169530823e-05
-2.66572617839e-12
7.45687336779e-05
-6.4829820735e-12
7.46004696748e-05
-1.1329374399e-11
7.46190751599e-05
-1.62259938562e-11
7.46292853441e-05
-2.00452251459e-11
7.46342864165e-05
-2.16930508381e-11
7.46361813321e-05
-2.07045801184e-11
7.4636328485e-05
-1.83568752434e-11
7.4635569298e-05
-1.5822135562e-11
7.46344235416e-05
-1.26659974192e-11
7.46331884827e-05
-9.05866470928e-12
7.46320230715e-05
-5.06991097241e-12
7.46310011116e-05
-2.12342515262e-13
7.46301476947e-05
3.8751382942e-12
7.46294592976e-05
8.55453926078e-12
7.46289189316e-05
1.35521325409e-11
7.46285041946e-05
1.88282051525e-11
7.46281919992e-05
2.44477447659e-11
7.46279611384e-05
3.05907314444e-11
7.46277932641e-05
3.73780640447e-11
7.46276732087e-05
4.48918251302e-11
7.46275893305e-05
5.31162517271e-11
7.46275334223e-05
6.20766962717e-11
7.46274943696e-05
7.14322791007e-11
7.46274681831e-05
8.11401043433e-11
7.46274510131e-05
9.2122224483e-11
7.46274398641e-05
1.04276740013e-10
7.46274324981e-05
1.17539655549e-10
7.46274273699e-05
1.3193305116e-10
7.46274234021e-05
1.47354776235e-10
7.46274198336e-05
1.63551949917e-10
7.46274161122e-05
1.80098713997e-10
7.46274118069e-05
1.96346773452e-10
7.46274065731e-05
2.11399945782e-10
7.46274002383e-05
2.2409324682e-10
7.46273925864e-05
2.3268489857e-10
7.46273832537e-05
2.34848361244e-10
7.46273716105e-05
2.27645678482e-10
7.46273565535e-05
2.07547776813e-10
7.46273363276e-05
1.70688439301e-10
7.46273098663e-05
1.13562464417e-10
7.46272656072e-05
1.36084100524e-11
7.46271754716e-05
-1.86845258493e-10
7.46270382702e-05
-5.01901729129e-10
7.46268137218e-05
-9.32632965282e-10
7.46264408429e-05
-1.52638860515e-09
7.46258228047e-05
-2.33766769537e-09
7.46248022548e-05
-3.43925186734e-09
7.46231233401e-05
-4.92712878283e-09
7.46203673696e-05
-6.91859561858e-09
7.46158693912e-05
-9.58904724141e-09
7.4608566937e-05
-1.31632904034e-08
7.4596715491e-05
-1.784305843e-08
7.45775084189e-05
-2.38960509593e-08
7.45465359245e-05
-3.17477991893e-08
7.4497032157e-05
-4.20843005113e-08
7.44182336842e-05
-5.50058501707e-08
7.42937020986e-05
-7.06716369189e-08
7.40989909038e-05
-8.88369838126e-08
7.37991744653e-05
-1.08344880015e-07
7.33474206842e-05
-1.26429077997e-07
7.2686997718e-05
-1.37911988751e-07
7.17594975797e-05
-1.35600054233e-07
-1.10977717353e-07
7.05229295706e-05
5.07871715542e-05
-7.8711687363e-07