/*--------------------------------*- C++ -*----------------------------------*\
| =========                 |                                                 |
| \\      /  F ield         | OpenFOAM: The Open Source CFD Toolbox           |
|  \\    /   O peration     | Version:  2106                                  |
|   \\  /    A nd           | Website:  www.openfoam.com                      |
|    \\/     M anipulation  |                                                 |
\*---------------------------------------------------------------------------*/
FoamFile
{
    version     2.0;
    format      ascii;
    arch        "LSB;label=32;scalar=64";
    class       surfaceScalarField;
    location    "0.133";
    object      phi;
}
// * * * * * * * * * * * * * * * * * * * * * * * * * * * * * * * * * * * * * //

dimensions      [0 3 -1 0 0 0 0];

oriented        oriented;

internalField   nonuniform List<scalar> 
799
(
1.62876e-32
4.257e-32
5.42134e-32
4.18198e-32
1.50273e-32
-5.33407e-32
-1.14442e-31
-1.62034e-31
-1.7379e-31
-1.37727e-31
-8.36254e-32
-2.30407e-32
1.37468e-32
2.18071e-32
-1.45912e-33
-4.23666e-32
-9.49333e-32
-1.48959e-31
-1.90595e-31
-2.19877e-31
-2.13002e-31
-1.78147e-31
-1.18201e-31
-4.86433e-32
-9.24898e-33
-1.33649e-33
-4.41783e-32
-1.15973e-31
-1.83428e-31
-2.37171e-31
-2.41161e-31
-2.14995e-31
-1.69788e-31
-1.15854e-31
-9.20726e-32
-8.20891e-32
-1.00372e-31
-1.39342e-31
-1.70281e-31
-2.08022e-31
-2.18023e-31
-2.0656e-31
-1.84092e-31
-1.38355e-31
-1.14069e-31
-1.04698e-31
-1.21512e-31
-1.71354e-31
-2.12167e-31
-2.49295e-31
-2.52045e-31
-2.18995e-31
-1.76585e-31
-1.23025e-31
-9.93269e-32
-1.06174e-31
-1.39938e-31
-1.99667e-31
-2.45685e-31
-2.71423e-31
-2.5883e-31
-2.06226e-31
-1.44645e-31
-9.02155e-32
-7.78813e-32
-1.19083e-31
-1.93315e-31
-2.7725e-31
-3.23066e-31
-3.05919e-31
-2.3488e-31
-1.3345e-31
-5.73013e-32
-4.10358e-32
-8.83505e-32
-1.82337e-31
-2.69028e-31
-3.13812e-31
-3.02431e-31
-2.43281e-31
-1.77111e-31
-1.28157e-31
-1.12822e-31
-1.27839e-31
-1.5195e-31
-1.77867e-31
-1.97399e-31
-2.15477e-31
-2.35705e-31
-2.47881e-31
-2.45813e-31
-2.1458e-31
-1.61905e-31
-1.08371e-31
-7.55732e-32
-9.43209e-32
-1.5276e-31
-2.34377e-31
-3.0357e-31
-3.16758e-31
-2.81296e-31
-1.95331e-31
-1.04304e-31
-5.08611e-32
-4.16114e-32
-9.93344e-32
-1.78367e-31
-2.51917e-31
-2.95605e-31
-2.7836e-31
-2.34273e-31
-1.71257e-31
-1.24353e-31
-1.15511e-31
-1.26693e-31
-1.57052e-31
-1.7363e-31
-1.70866e-31
-1.57859e-31
-1.43697e-31
-1.53345e-31
-1.83564e-31
-2.24817e-31
-2.55357e-31
-2.53651e-31
-2.18688e-31
-1.59027e-31
-9.92712e-32
-6.11618e-32
-5.55021e-32
-8.51477e-32
-1.37223e-31
-1.97881e-31
-2.52899e-31
-2.8446e-31
-2.8689e-31
-2.52864e-31
-1.88411e-31
-1.14352e-31
-4.92516e-32
-2.36382e-32
-4.58731e-32
-1.08748e-31
-1.92607e-31
-2.57107e-31
-2.83257e-31
-2.59414e-31
-1.98813e-31
-1.35724e-31
-9.20474e-32
-9.08919e-32
-1.25083e-31
-1.71698e-31
-2.08398e-31
-2.08519e-31
-1.75198e-31
-1.23963e-31
-8.17964e-32
-7.85223e-32
-1.18085e-31
-1.887e-31
-2.55023e-31
-2.81425e-31
-2.49962e-31
-1.69191e-31
-7.92304e-32
-2.05142e-32
-2.77793e-32
-9.36062e-32
-1.82863e-31
-2.52895e-31
-2.59023e-31
-2.1183e-31
-1.33523e-31
-6.99594e-32
-6.26228e-32
-9.76247e-32
-1.6549e-31
-2.14033e-31
-2.15089e-31
-1.7769e-31
-1.0551e-31
-5.47837e-32
-4.00144e-32
-6.76949e-32
-1.33602e-31
-1.88032e-31
-2.22877e-31
-2.13503e-31
-1.64667e-31
-1.0747e-31
-4.9602e-32
-2.45481e-32
-3.09687e-32
-6.03057e-32
-1.06538e-31
-1.41724e-31
-1.63425e-31
-1.64564e-31
-1.44193e-31
-1.14855e-31
-7.6412e-32
-3.95959e-32
-1.38945e-32
-3.32072e-33
-1.83379e-32
-5.36594e-32
-9.54358e-32
-1.27202e-31
-1.25234e-31
-8.58694e-32
-2.21394e-32
4.09847e-32
6.82381e-32
4.6286e-32
-1.46596e-32
-8.2727e-32
-1.12401e-31
-7.84403e-32
1.2517e-32
1.24228e-31
2.00208e-31
2.00044e-31
1.23743e-31
5.37342e-33
-8.81143e-32
-1.0128e-31
-2.19319e-32
1.27212e-31
2.74716e-31
3.57295e-31
3.47037e-31
2.49032e-31
1.28687e-31
4.56112e-32
4.17806e-32
1.29729e-31
2.61283e-31
3.90604e-31
4.69178e-31
4.72785e-31
4.26056e-31
3.58064e-31
3.1395e-31
3.22446e-31
3.80811e-31
4.72041e-31
5.61867e-31
6.213e-31
6.40954e-31
6.35113e-31
6.27968e-31
6.50075e-31
7.12191e-31
7.95538e-31
8.78157e-31
9.23998e-31
9.25633e-31
9.07679e-31
8.97927e-31
9.40002e-31
1.04169e-30
1.17717e-30
1.31393e-30
1.40518e-30
1.43862e-30
1.43677e-30
1.42729e-30
1.45226e-30
1.5261e-30
1.63122e-30
1.75507e-30
1.86698e-30
1.96016e-30
2.04868e-30
2.12986e-30
2.22195e-30
2.31804e-30
2.4085e-30
2.50356e-30
2.59547e-30
2.70069e-30
2.82103e-30
2.94517e-30
3.07222e-30
3.18894e-30
3.30632e-30
3.44082e-30
3.60431e-30
3.79856e-30
3.99994e-30
4.17737e-30
4.30651e-30
4.39502e-30
4.47482e-30
4.59763e-30
4.79847e-30
5.07095e-30
5.38162e-30
5.66434e-30
5.88091e-30
6.02889e-30
6.14058e-30
6.28351e-30
6.49218e-30
6.77845e-30
7.11172e-30
7.43638e-30
7.7264e-30
7.96801e-30
8.19218e-30
8.43821e-30
8.72409e-30
9.05879e-30
9.41045e-30
9.75388e-30
1.0077e-29
1.03793e-29
1.06948e-29
1.10412e-29
1.14297e-29
1.18542e-29
1.228e-29
1.26931e-29
1.3079e-29
1.34495e-29
1.38396e-29
1.42641e-29
1.47452e-29
1.5267e-29
1.57974e-29
1.63168e-29
1.67927e-29
1.72432e-29
1.76929e-29
1.81725e-29
1.87242e-29
1.93358e-29
1.99944e-29
2.06563e-29
2.12688e-29
2.18171e-29
2.23039e-29
2.27323e-29
2.3321e-29
2.40193e-29
2.55444e-29
2.81332e-29
3.19145e-29
3.8957e-29
4.1806e-29
4.47591e-29
2.78532e-29
-1.47319e-29
-6.59387e-29
-1.71362e-28
-1.6183e-28
-1.00864e-28
1.87332e-28
8.31741e-28
1.19729e-27
1.83995e-27
1.07853e-27
-7.39152e-28
-3.01426e-27
-7.52046e-27
-7.19067e-27
-5.90816e-27
1.77139e-27
1.68996e-26
2.26914e-26
3.30723e-26
1.6672e-26
-1.35872e-26
-4.09834e-26
-9.04715e-26
-7.12982e-26
-4.21705e-26
3.15946e-26
1.54649e-25
1.6276e-25
1.92022e-25
5.43361e-26
-1.45575e-25
-2.41537e-25
-4.15686e-25
-2.36499e-25
-3.1618e-26
2.19179e-25
5.89221e-25
4.55182e-25
3.8306e-25
-3.70585e-26
-5.43976e-25
-5.80024e-25
-7.54226e-25
-2.54552e-25
2.23654e-25
5.06874e-25
9.15318e-25
5.06884e-25
2.23669e-25
-2.54539e-25
-7.54221e-25
-5.80029e-25
-5.43989e-25
-3.70725e-26
3.83051e-25
4.5518e-25
5.89225e-25
2.19187e-25
-3.16123e-26
-2.36497e-25
-4.15688e-25
-2.41542e-25
-1.4558e-25
5.43324e-26
1.92021e-25
1.6276e-25
1.54649e-25
3.15949e-26
-4.21708e-26
-7.1299e-26
-9.04723e-26
-4.09844e-26
-1.35881e-26
1.6671e-26
3.30713e-26
2.26904e-26
1.68986e-26
1.77057e-27
-5.90889e-27
-7.19132e-27
-7.52106e-27
-3.01488e-27
-7.39787e-28
1.07784e-27
1.83923e-27
1.19655e-27
8.31023e-28
1.86686e-28
-1.01429e-28
-1.62295e-28
-1.7176e-28
-6.63357e-29
-1.51733e-29
2.73062e-29
4.41299e-29
4.11447e-29
3.83372e-29
3.14231e-29
2.77788e-29
2.53107e-29
2.38337e-29
2.30955e-29
2.24229e-29
2.18845e-29
2.13225e-29
2.07593e-29
2.01863e-29
1.9623e-29
1.90786e-29
1.85673e-29
1.80814e-29
1.75975e-29
1.70945e-29
1.65583e-29
1.59979e-29
1.54489e-29
1.49382e-29
1.44925e-29
1.41052e-29
1.37467e-29
1.33912e-29
1.30029e-29
1.25839e-29
1.21419e-29
1.16973e-29
1.12817e-29
1.09011e-29
1.0569e-29
1.02743e-29
9.99696e-30
9.72003e-30
9.41643e-30
9.08147e-30
8.72508e-30
8.36978e-30
8.04985e-30
7.78774e-30
7.57718e-30
7.39955e-30
7.21163e-30
6.9784e-30
6.70085e-30
6.38567e-30
6.08405e-30
5.83218e-30
5.64053e-30
5.51373e-30
5.39984e-30
5.26804e-30
5.09093e-30
4.85542e-30
4.60102e-30
4.35325e-30
4.15366e-30
4.0239e-30
3.94576e-30
3.89508e-30
3.82249e-30
3.69109e-30
3.4955e-30
3.25582e-30
3.02224e-30
2.84975e-30
2.76301e-30
2.75384e-30
2.77516e-30
2.76179e-30
2.67444e-30
2.50366e-30
2.28793e-30
2.08487e-30
1.94234e-30
1.88118e-30
1.87858e-30
1.89699e-30
1.88828e-30
1.83259e-30
1.73061e-30
1.6006e-30
1.47868e-30
1.37626e-30
1.31274e-30
1.27786e-30
1.25671e-30
1.24089e-30
1.20121e-30
1.14809e-30
1.07493e-30
9.98332e-31
9.44021e-31
9.02271e-31
8.90727e-31
8.77455e-31
8.46309e-31
7.9867e-31
7.18733e-31
6.49933e-31
6.01289e-31
5.84669e-31
6.06921e-31
6.24027e-31
6.28782e-31
5.98994e-31
5.358e-31
4.72751e-31
4.14442e-31
3.81895e-31
3.67021e-31
3.49694e-31
3.34277e-31
3.14e-31
3.09629e-31
3.34495e-31
3.71884e-31
4.07215e-31
3.96018e-31
3.19686e-31
1.99319e-31
6.70344e-32
-3.29816e-33
2.16276e-32
1.33122e-31
2.93157e-31
4.05252e-31
4.19026e-31
3.14607e-31
1.2276e-31
-5.52749e-32
-1.56614e-31
-1.26761e-31
1.95196e-32
1.96204e-31
3.35802e-31
3.5539e-31
2.51652e-31
8.10884e-32
-9.25665e-32
-1.73627e-31
-1.44761e-31
-2.83631e-32
1.2265e-31
2.19201e-31
2.37876e-31
1.71357e-31
5.68661e-32
-4.0938e-32
-1.02216e-31
-1.01571e-31
-6.00898e-32
-7.29145e-33
4.75932e-32
7.75789e-32
9.27471e-32
8.96791e-32
6.69356e-32
3.7254e-32
-5.84023e-33
-4.34262e-32
-7.09502e-32
-8.16395e-32
-6.93903e-32
-4.44965e-32
-6.44359e-33
2.97391e-32
6.10155e-32
7.52843e-32
6.63453e-32
3.77919e-32
-1.34519e-32
-6.02801e-32
-9.80577e-32
-1.0849e-31
-8.53089e-32
-5.0327e-32
4.0926e-34
3.52795e-32
5.23417e-32
5.40915e-32
2.79546e-32
-1.50463e-35
-3.80236e-32
-7.17804e-32
-8.66021e-32
-9.01215e-32
-6.4566e-32
-2.7815e-32
1.11283e-32
4.24818e-32
4.55136e-32
2.95411e-32
-5.82744e-33
-4.47056e-32
-7.13826e-32
-8.25968e-32
-7.07793e-32
-4.47974e-32
-1.23615e-32
1.54165e-32
2.87565e-32
2.30075e-32
2.82269e-33
-2.19059e-32
-4.08433e-32
-4.09305e-32
-3.2221e-32
-1.82813e-32
-1.37066e-32
-2.65222e-32
-3.73931e-32
-4.40662e-32
-2.3719e-32
1.58861e-32
4.94633e-32
6.3834e-32
2.94803e-32
-3.16591e-32
-9.36453e-32
-1.23499e-31
-9.10506e-32
-1.99108e-32
6.51656e-32
1.13877e-31
9.99649e-32
3.60284e-32
-5.31512e-32
-1.1147e-31
-1.16549e-31
-6.58758e-32
1.46611e-32
7.46253e-32
9.28027e-32
5.57096e-32
-1.00735e-32
-6.4624e-32
-8.48998e-32
-5.25117e-32
7.06562e-33
6.28365e-32
8.77977e-32
6.08759e-32
3.15634e-33
-6.0735e-32
-9.98591e-32
-8.85063e-32
-3.8773e-32
3.29229e-32
9.5803e-32
1.18528e-31
1.01086e-31
4.53406e-32
-2.60279e-32
-8.18851e-32
-1.12662e-31
-1.01297e-31
-5.50673e-32
7.84102e-33
7.7363e-32
1.22877e-31
1.35319e-31
1.08299e-31
4.15113e-32
-3.6373e-32
-1.06519e-31
-1.37289e-31
-1.116e-31
-3.99841e-32
5.89214e-32
1.40039e-31
1.70321e-31
1.36339e-31
4.79725e-32
-5.16992e-32
-1.20013e-31
-1.25736e-31
-6.53314e-32
2.90452e-32
1.13699e-31
1.49732e-31
1.19391e-31
4.36975e-32
-4.08086e-32
-9.33534e-32
-8.43851e-32
-2.70571e-32
5.54615e-32
1.20842e-31
1.33055e-31
9.89341e-32
2.5022e-32
-4.33853e-32
-7.18312e-32
-5.912e-32
3.23797e-33
6.82876e-32
1.11228e-31
1.1983e-31
7.74604e-32
2.63371e-32
-2.19363e-32
-4.42986e-32
-2.4697e-32
8.42519e-33
5.35266e-32
8.42828e-32
8.98672e-32
8.17362e-32
5.73274e-32
3.53079e-32
2.22114e-32
1.49485e-32
1.69548e-32
1.93641e-32
1.75147e-32
1.86423e-32
1.87033e-32
2.8458e-32
5.1235e-32
7.51045e-32
1.04214e-31
1.12728e-31
9.87029e-32
6.35226e-32
5.39561e-33
-3.8317e-32
-6.41903e-32
-4.93919e-32
4.04445e-33
6.81324e-32
1.31373e-31
1.54864e-31
1.39606e-31
8.77329e-32
2.40177e-32
-2.50707e-32
-4.56656e-32
-2.44571e-32
6.17426e-33
5.4886e-32
7.52181e-32
7.57989e-32
6.87256e-32
2.38511e-32
1.43933e-32
-1.81444e-32
-2.4417e-32
-4.56165e-33
)
;

boundaryField
{
    left
    {
        type            calculated;
        value           uniform 0;
    }
    right
    {
        type            calculated;
        value           uniform 0;
    }
    empty
    {
        type            empty;
        value           nonuniform List<scalar> 0();
    }
}


// ************************************************************************* //
