/*--------------------------------*- C++ -*----------------------------------*\
| =========                 |                                                 |
| \\      /  F ield         | OpenFOAM: The Open Source CFD Toolbox           |
|  \\    /   O peration     | Version:  2106                                  |
|   \\  /    A nd           | Website:  www.openfoam.com                      |
|    \\/     M anipulation  |                                                 |
\*---------------------------------------------------------------------------*/
FoamFile
{
    version     2.0;
    format      ascii;
    arch        "LSB;label=32;scalar=64";
    class       volScalarField;
    location    "0.23";
    object      p;
}
// * * * * * * * * * * * * * * * * * * * * * * * * * * * * * * * * * * * * * //

dimensions      [0 2 -2 0 0 0 0];

internalField   nonuniform List<scalar> 
9600
(
2.23472754689
-0.663282072037
-1.56751367308
-1.9531249017
-2.17245516106
-2.31239834312
-2.41630317852
-2.50385254914
-2.58335222258
-2.65874236179
-2.73211629911
-2.80462525376
-2.87689840521
-2.94926693573
-3.02188729283
-3.0948152035
-3.16805084709
-3.24156591907
-3.31532029119
-3.38927094921
-3.46337721999
-3.53760465379
-3.61192263933
-3.68630693938
-3.76073823849
-3.83520174267
-3.9096856497
-3.98418094345
-4.05868082372
-4.13318009751
-4.20767463651
-4.28216121128
-4.35663730194
-4.4311004963
-4.50554868992
-4.57997992642
-4.65439221973
-4.72878371719
-4.80315232392
-4.87749596672
-4.95181236796
-5.02609910091
-5.10035369862
-5.17457296874
-5.24875412776
-5.32289399014
-5.39698886864
-5.47103487519
-5.54502802185
-5.61896395334
-5.69283794287
-5.76664500618
-5.84037964318
-5.91403611667
-5.98760810663
-6.06108874974
-6.13447102209
-6.20774751969
-6.28090996385
-6.35394945191
-6.42685686739
-6.49962225013
-6.57223497601
-6.64468398421
-6.71695743859
-6.78904258655
-6.86092587733
-6.93259309474
-7.00402911365
-7.07521797476
-7.14614264085
-7.21678513577
-7.28712677178
-7.357147469
-7.42682581501
-7.49613981594
-7.56506617332
-7.63357985538
-7.70165482469
-7.76926408033
-7.83637900332
-7.90296921471
-7.96900308761
-8.03444769485
-8.09926865614
-8.16342965387
-8.22689242358
-8.28961763517
-8.35156437727
-8.41268946268
-8.47294795131
-8.53229350109
-8.59067753139
-8.64804951839
-8.70435751413
-8.75954736127
-8.81356261013
-8.86634531633
-8.91783549742
-8.96797063531
-9.01668691787
-9.06391827797
-9.10959628665
-9.15365140526
-9.19601147761
-9.23660210536
-9.27534739911
-9.31216979974
-9.34698951632
-9.37972492831
-9.4102929588
-9.43860832126
-9.46458450444
-9.48813326597
-9.50916441269
-9.52758699046
-9.54330845992
-9.55623452987
-9.56627021911
-9.57331955199
-9.57728538265
-9.57806951245
-9.57557285513
-9.56969620536
-9.56033979558
-9.54740339682
-9.53078566903
-9.51038445325
-9.48609816257
-9.45782440026
-9.42546112355
-9.38890595277
-9.34805477334
-9.30280413863
-9.25304995664
-9.19868608915
-9.13960488297
-9.07569679766
-9.00684966323
-8.93294625154
-8.85386460856
-8.76947571029
-8.6796415422
-8.584211692
-8.48301824639
-8.37587461889
-8.26256597547
-8.14283961993
-8.01639341538
-7.88285887759
-7.7417715056
-7.59252736382
-7.43431253651
-7.2659752482
-7.08581318261
-6.89125768469
-6.67838759707
-6.44137808286
-6.18088374248
-5.9602435951
0.323186166809
-0.859167611199
-1.46784129449
-1.82186667616
-2.06448196729
-2.23504543802
-2.36311712024
-2.46761945629
-2.55869544069
-2.64197410755
-2.72074695946
-2.79696423567
-2.87178483753
-2.94589715215
-3.01970318241
-3.09342942541
-3.16719581966
-3.24105812761
-3.3150352126
-3.3891251108
-3.46331612506
-3.53759193705
-3.61193578587
-3.68633232453
-3.76076766642
-3.83523065413
-3.90971195037
-3.98420381637
-4.05870007734
-4.13319608461
-4.20768801267
-4.28217245607
-4.35664682341
-4.43110880463
-4.5055562601
-4.57998707196
-4.65439910852
-4.72879060455
-4.80315950653
-4.87750366306
-4.95182065825
-5.02610812329
-5.10036334308
-5.17458346487
-5.24876551541
-5.32290629236
-5.39700218833
-5.47104931132
-5.54504363478
-5.61898082069
-5.69285617049
-5.76666475276
-5.84040096357
-5.91405901115
-5.98763276906
-6.06111544948
-6.13449984277
-6.20777850351
-6.28094326743
-6.35398518783
-6.42689520047
-6.49966351826
-6.5722793826
-6.64473157778
-6.71700835416
-6.78909708725
-6.86098418126
-6.93265537321
-7.00409564632
-7.07528914805
-7.14621875998
-7.21686625372
-7.28721302889
-7.35723936735
-7.42692379333
-7.4962440409
-7.56517695934
-7.63369767215
-7.70177990071
-7.76939656445
-7.83651934682
-7.9031180461
-7.96916085937
-8.03461461635
-8.09944500439
-8.163616034
-8.22708941864
-8.2898254932
-8.3517834685
-8.41292045669
-8.47319131386
-8.53254959223
-8.59094698851
-8.64833285276
-8.70465498149
-8.75985956764
-8.81389028104
-8.86668877418
-8.91819519098
-8.968347217
-9.0170809534
-9.06433044413
-9.11002707951
-9.15410118857
-9.19648081436
-9.23709158006
-9.27585754804
-9.31270120396
-9.34754267395
-9.38030008043
-9.41089043879
-9.43922852592
-9.46522760484
-9.48879971903
-9.50985477738
-9.5283015209
-9.54404755768
-9.55699860011
-9.56705963813
-9.57413470845
-9.57812668024
-9.57893758697
-9.57646833991
-9.57061962432
-9.56129109525
-9.5483816947
-9.53179105179
-9.51141819009
-9.48716218546
-9.45892093881
-9.42659240925
-9.39007556146
-9.34926757555
-9.30406554397
-9.25436687236
-9.20006754834
-9.14106218631
-9.07724366863
-9.00850351685
-8.93472921146
-8.85580410917
-8.77160586614
-8.68200491886
-8.58686257518
-8.48602531029
-8.37932484457
-8.26657148748
-8.14754658899
-8.02199354978
-7.88960801451
-7.75002175897
-7.60278013766
-7.44731486883
-7.2829097965
-7.1086754549
-6.92360706735
-6.72681229257
-6.51733390111
-6.29536573488
-6.08294335533
-0.652655853339
-1.13402332702
-1.52528110271
-1.81689854704
-2.03847104485
-2.20640705513
-2.33850889496
-2.44829711789
-2.54415597109
-2.63130093178
-2.71304303977
-2.79147766532
-2.86792483899
-2.94321419467
-3.01786205567
-3.09218360872
-3.16636615658
-3.24051575804
-3.31468848508
-3.3889097907
-3.4631872366
-3.53751885198
-3.61189780812
-3.68631587403
-3.76076387144
-3.83523368355
-3.90971830094
-3.98421148538
-4.05870787376
-4.13320339095
-4.20769469526
-4.28217851491
-4.35665224219
-4.43111366202
-4.50556069759
-4.57999128563
-4.65440318793
-4.72879454679
-4.80316343317
-4.87750776426
-4.95182486138
-5.02611235584
-5.10036778721
-5.17458826673
-5.24877066679
-5.32291177004
-5.3970081118
-5.47105579004
-5.54505070935
-5.61898850366
-5.69286446546
-5.76667375105
-5.84041074542
-5.91406950677
-5.98764397645
-6.06112754322
-6.13451293939
-6.20779261082
-6.28095845215
-6.35400149187
-6.42691256484
-6.49968209693
-6.57229935173
-6.644752999
-6.71703127741
-6.78912160841
-6.86101044467
-6.93268347226
-7.00412559355
-7.07532102939
-7.14625290578
-7.21690285598
-7.28725197359
-7.35728078079
-7.42696801851
-7.49629108067
-7.5652267659
-7.63375059513
-7.7018362739
-7.76945636678
-7.83658251678
-7.90318481171
-7.96923161252
-8.03468956109
-8.09952412186
-8.16369949835
-8.22717767489
-8.2899187426
-8.35188174927
-8.41302404891
-8.47330043829
-8.53266426269
-8.59106747776
-8.64845955974
-8.70478794916
-8.75999886793
-8.81403632802
-8.86684178914
-8.91835523623
-8.96851446936
-9.0172554969
-9.06451254742
-9.11021701601
-9.15429894437
-9.19668660029
-9.23730573718
-9.27608017895
-9.31293242971
-9.34778286188
-9.38054948523
-9.41114945942
-9.43949780552
-9.46550746873
-9.4890904434
-9.51015686828
-9.52861527913
-9.54437333992
-9.55733704817
-9.56741130563
-9.57450015136
-9.57850650895
-9.57933250308
-9.57687940786
-9.57104798879
-9.56173886059
-9.54885125206
-9.53228478417
-9.51193844451
-9.48771138367
-9.45950231081
-9.42720944006
-9.39073242378
-9.34996984238
-9.30481951043
-9.25518009563
-9.20094983276
-9.14202552611
-9.07830248146
-9.00967576146
-8.93603755988
-8.85727641973
-8.77327681026
-8.68391768555
-8.5890713338
-8.48859883706
-8.38234970703
-8.27015764411
-8.15183646918
-8.02717386473
-7.89592518434
-7.75780748878
-7.61249302586
-7.45960491161
-7.29872430076
-7.12942878721
-6.95140966355
-6.76476211091
-6.57012344369
-6.36872312149
-6.16914535197
-1.2041162392
-1.3904625379
-1.63290797174
-1.85537744581
-2.0425672419
-2.19659486068
-2.32503253463
-2.43532289607
-2.53311747774
-2.62247777287
-2.70624882567
-2.78637557997
-2.86416546588
-2.94048742057
-3.01591202236
-3.09080783289
-3.16540869499
-3.23985887059
-3.31424470043
-3.38861508929
-3.4629953916
-3.53739688484
-3.61182286136
-3.68627159026
-3.76073942903
-3.8352216537
-3.90971366394
-3.98421113976
-4.05870996935
-4.13320663984
-4.20769830745
-4.28218214852
-4.35665577357
-4.43111699057
-4.50556370715
-4.57999406078
-4.65440591053
-4.72879723107
-4.80316604388
-4.87751036317
-4.95182761591
-5.02611521948
-5.10037079032
-5.17459148816
-5.24877413345
-5.32291546512
-5.39701203895
-5.47105998228
-5.54505518629
-5.61899328914
-5.69286958638
-5.76667923093
-5.84041668756
-5.91407590341
-5.98765079093
-6.06113487873
-6.13452089883
-6.20780116141
-6.28096763206
-6.35401150088
-6.42692333842
-6.49969352648
-6.57231159674
-6.64476619138
-6.71704542021
-6.78913665953
-6.86102648375
-6.93270071178
-7.00414413153
-7.07534064438
-7.1462736575
-7.21692515843
-7.28727581077
-7.35730604502
-7.42699497313
-7.49631982603
-7.56525709808
-7.63378264799
-7.70187036253
-7.7694925893
-7.83662087875
-7.90322531769
-7.96927436965
-8.03473486566
-8.09957205956
-8.16374993774
-8.22723090953
-8.2899751177
-8.35194117814
-8.41308663615
-8.47336649921
-8.53273372901
-8.59114035775
-8.64853625714
-8.70486864869
-8.76008349699
-8.8141250462
-8.86693488585
-8.91845292117
-8.96861705743
-9.01736304073
-9.0646252176
-9.11033538831
-9.15442312711
-9.19681665898
-9.23744207992
-9.27622310328
-9.31308197124
-9.34793926359
-9.38071303588
-9.41132000024
-9.43967544818
-9.46569248728
-9.48928296565
-9.51035719119
-9.52882371649
-9.54459000039
-9.55756237377
-9.56764587982
-9.57474449549
-9.57876117643
-9.5795981379
-9.57715688754
-9.57133827746
-9.56204288452
-9.54917035277
-9.5326206992
-9.51229354259
-9.48808823086
-9.45990447279
-9.42764127717
-9.39119869377
-9.35047683721
-9.30537497647
-9.25579305741
-9.20163129901
-9.14278946159
-9.07916601223
-9.01065910907
-8.93716586679
-8.85858100178
-8.77479613414
-8.68569910171
-8.59117366747
-8.49109666643
-8.38533617948
-8.27374949572
-8.15618309826
-8.03246762667
-7.90241577653
-7.76582408326
-7.62247390764
-7.47213997512
-7.31461384733
-7.14974858789
-6.97754772578
-6.79832977559
-6.61279149079
-6.42186026009
-6.2286875801
-1.54146065278
-1.59322532287
-1.73711779975
-1.90141241802
-2.05574488721
-2.19380223844
-2.3159562435
-2.42474455873
-2.52318852714
-2.61401882953
-2.69942653462
-2.78106454356
-2.86013462731
-2.9374884247
-3.0137177637
-3.08922631074
-3.16428490493
-3.23907142583
-3.31370076186
-3.38824504224
-3.46274787334
-3.53723467085
-3.61171896513
-3.68620677428
-3.76070059514
-3.83519974244
-3.90970235282
-3.98420630678
-4.05870910108
-4.1332080186
-4.20770077516
-4.28218506377
-4.35665879322
-4.43111999041
-4.50556659531
-4.57999673299
-4.65440848058
-4.72879981659
-4.80316862824
-4.87751289443
-4.95183026945
-5.02611806359
-5.10037377451
-5.17459464691
-5.24877756685
-5.3229192107
-5.39701611004
-5.47106440791
-5.54506005105
-5.61899869381
-5.69287551497
-5.76668558733
-5.8404235258
-5.91408331564
-5.98765876242
-6.06114343013
-6.13453003535
-6.2078108912
-6.28097806263
-6.3540226872
-6.42693535126
-6.49970638008
-6.57232533725
-6.64478092587
-6.7170612463
-6.78915356257
-6.86104449349
-6.9327199956
-7.00416483981
-7.07536275069
-7.1462971785
-7.21695032212
-7.28730273089
-7.35733465101
-7.42702538041
-7.49635228667
-7.56529164686
-7.63381917327
-7.70190899333
-7.76953370028
-7.83666459111
-7.9032714632
-7.96932308187
-8.03478655284
-8.09962679126
-8.16380760293
-8.22729168248
-8.29003930236
-8.35200887794
-8.41315786052
-8.47344141156
-8.5328125377
-8.59122311416
-8.64862303486
-8.70495970272
-8.7601789086
-8.8142247789
-8.86703911313
-8.91856176199
-8.9687305871
-9.01748134742
-9.06474832065
-9.11046344819
-9.15455627717
-9.19695495242
-9.23758570127
-9.27637224757
-9.31323666868
-9.34809965005
-9.38087941253
-9.41149244926
-9.43985419954
-9.46587791011
-9.48947523237
-9.51055655488
-9.52903064152
-9.54480469989
-9.55778516553
-9.56787733978
-9.57498516869
-9.57901174544
-9.57985945265
-9.57742991239
-9.57162413747
-9.56234291464
-9.54948624441
-9.53295441476
-9.51264769862
-9.48846559222
-9.46030861007
-9.4280770405
-9.39167137952
-9.35099283658
-9.30594251889
-9.25642213232
-9.2023338215
-9.14358006915
-9.08006290851
-9.01168413502
-8.93834582776
-8.85994897334
-8.77639259383
-8.68757420221
-8.59338869716
-8.49372760966
-8.38847872477
-8.27752260915
-8.16073525508
-8.0379876688
-7.90914353595
-7.77406505699
-7.63262106382
-7.48469564364
-7.3302128631
-7.16917517121
-7.00170937278
-6.82812477119
-6.64887221523
-6.46428233605
-6.27495164958
-1.74553406528
-1.74055824657
-1.82453076221
-1.94532097388
-2.07196392785
-2.19464313711
-2.30954018875
-2.41573648785
-2.51401942877
-2.60580869685
-2.69256974361
-2.77558495277
-2.85588911789
-2.93427576089
-3.01133300253
-3.08748534951
-3.16303309274
-3.23818437417
-3.31308111641
-3.38781855165
-3.46245896454
-3.53704238189
-3.61159331056
-3.68612705452
-3.76065140234
-3.83517074212
-3.90968640329
-3.98419844894
-4.05870618037
-4.13320806395
-4.20770245475
-4.28218751922
-4.35666150813
-4.43112273032
-4.50556929685
-4.5799993229
-4.65441090441
-4.72880222577
-4.80317099472
-4.87751522364
-4.9518326759
-5.0261206309
-5.1003764471
-5.17459738758
-5.24878047773
-5.3229223602
-5.3970194889
-5.47106799949
-5.5450638548
-5.61900282381
-5.69288000872
-5.76669029021
-5.8404284619
-5.91408867308
-5.98766458438
-6.06114965801
-6.13453678317
-6.20781817843
-6.28098575069
-6.35403097361
-6.42694438418
-6.49971612596
-6.57233579988
-6.64479212146
-6.71707324051
-6.78916647168
-6.86105828529
-6.93273462281
-7.00418049095
-7.0753795393
-7.14631494352
-7.21696917908
-7.28732297843
-7.35735614708
-7.42704800201
-7.49637634335
-7.56531732193
-7.63384640047
-7.70193780634
-7.76956420944
-7.8366969768
-7.90330584233
-7.96935936563
-8.03482478197
-8.09966729333
-8.16385043868
-8.22733674872
-8.29008683094
-8.3520590033
-8.41321055151
-8.47349695337
-8.53287118481
-8.59128476842
-8.6486877264
-8.70502776328
-8.76025050337
-8.81429993659
-8.86711796662
-8.91864442806
-8.96881729368
-9.01757237703
-9.06484374898
-9.11056344576
-9.15466107773
-9.19706458244
-9.23770030165
-9.27649211382
-9.31336188259
-9.3482302456
-9.3810156994
-9.41163465617
-9.44000233034
-9.46603231933
-9.48963613276
-9.51072404736
-9.52920517239
-9.5449867711
-9.55797517945
-9.56807568909
-9.57519244563
-9.57922889486
-9.58008722515
-9.57766942839
-9.57187656784
-9.56260970575
-9.54976942914
-9.5332560516
-9.51297039347
-9.48881257793
-9.46068369683
-9.42848510932
-9.39211808958
-9.35148505377
-9.3064888005
-9.25703269734
-9.20302093605
-9.14435862606
-9.08095138586
-9.0127047052
-8.93952524149
-8.86132041393
-8.77799642493
-8.68945965619
-8.59561632833
-8.49637126153
-8.3916291143
-8.28129238945
-8.16526364365
-8.04344648653
-7.91574631588
-7.78207658586
-7.6423659748
-7.49656968847
-7.34468704938
-7.1867823261
-7.02300697642
-6.85360002402
-6.6788046288
-6.49863040153
-6.31283139756
-1.86866224674
-1.84320945143
-1.89256615095
-1.98272625541
-2.08765136476
-2.19697313437
-2.3048100877
-2.40803395611
-2.50570772817
-2.59809828903
-2.68596985703
-2.77021384808
-2.85166915979
-2.93104694363
-3.00891458575
-3.08570639936
-3.16174545327
-3.2372663511
-3.31243616919
-3.3873721356
-3.46215476352
-3.53683862043
-3.6114595897
-3.68604132182
-3.76059782155
-3.83513856001
-3.90966825358
-3.98418915559
-4.05870225294
-4.13320732998
-4.20770353261
-4.28218952555
-4.35666389565
-4.43112518742
-4.50557169241
-4.58000166032
-4.65441310556
-4.72880433462
-4.80317310916
-4.87751729182
-4.95183471619
-5.02612276705
-5.10037873723
-5.17459976489
-5.24878292912
-5.32292499082
-5.39702234384
-5.47107110202
-5.54506719586
-5.61900647249
-5.6928840603
-5.76669467256
-5.84043309801
-5.91409365968
-5.98766999634
-6.0611554248
-6.13454294511
-6.20782474185
-6.28099270293
-6.35403833989
-6.42695230242
-6.49972468826
-6.57234501381
-6.64480194493
-6.71708369698
-6.78917771989
-6.86107037529
-6.93274747492
-7.00419420066
-7.07539426789
-7.14633060577
-7.21698576948
-7.28734075331
-7.357375146
-7.42706807477
-7.49639759224
-7.56533997577
-7.63387052123
-7.70196340073
-7.76959130799
-7.83672571941
-7.90333637474
-7.96939164255
-8.03485880878
-8.09970327655
-8.16388847045
-8.22737675736
-8.2901289606
-8.35210340854
-8.41325717878
-8.47354590207
-8.5329227039
-8.59133894289
-8.64874446933
-8.70508714695
-8.76031271197
-8.81436505741
-8.86718604652
-8.91871552034
-8.96889150546
-9.01764987803
-9.06492464792
-9.11064782105
-9.15474908488
-9.19715629645
-9.23779581843
-9.27659170818
-9.31346566885
-9.34833824694
-9.38112819802
-9.41175197182
-9.44012451408
-9.46615961091
-9.48976884768
-9.51086231216
-9.52934937574
-9.54513744432
-9.55813275722
-9.56824069013
-9.57536538786
-9.57941069864
-9.58027880683
-9.5778717812
-9.5720909966
-9.56283771589
-9.55001296809
-9.53351731614
-9.51325214432
-9.48911826139
-9.46101715477
-9.4288511004
-9.39252248265
-9.35193484293
-9.30699243077
-9.25760050569
-9.20366522451
-9.14509392537
-9.0817957349
-9.0136802769
-8.94065822139
-8.86264235161
-8.77954616014
-8.69128425148
-8.59777268032
-8.49892840904
-8.39467111354
-8.28492140883
-8.16960392991
-8.04864936809
-7.92199408032
-7.78958874012
-7.65140353389
-7.50743547871
-7.35772260893
-7.20235237739
-7.04146681235
-6.8752461786
-6.70383771054
-6.52719840351
-6.34505401124
-1.94270368354
-1.91165773253
-1.94158630337
-2.01135854036
-2.10052730165
-2.1994036644
-2.3012827962
-2.40175536681
-2.49868197376
-2.59142835062
-2.68016562038
-2.76543194734
-2.8478769546
-2.92812442817
-3.00671320411
-3.08407971437
-3.16056358498
-3.23642101071
-3.31184058127
-3.38695876096
-3.46187229599
-3.53664886301
-3.61133464481
-3.68596109702
-3.7605474496
-3.83510804862
-3.90965078366
-3.98418006051
-4.05869829474
-4.13320636687
-4.20770422265
-4.28219111479
-4.35666591934
-4.43112732222
-4.50557380377
-4.58000366332
-4.65441501416
-4.72880610301
-4.80317487718
-4.87751905999
-4.95183642866
-5.02612448584
-5.10038054726
-5.17460169019
-5.24878494854
-5.32292710547
-5.39702462683
-5.47107365963
-5.5450699644
-5.61900932663
-5.69288709561
-5.76669800777
-5.84043666379
-5.91409745935
-5.98767408697
-6.06115978328
-6.13454756456
-6.20782976493
-6.28099813195
-6.35404414602
-6.42695851524
-6.49973134822
-6.57235219906
-6.64480968824
-6.71709190966
-6.78918649296
-6.8610798788
-6.93275762704
-7.00420493473
-7.07540577279
-7.14634289243
-7.2169986714
-7.2873544482
-7.357389867
-7.42708371141
-7.49641406647
-7.56535747532
-7.63388917293
-7.70198323944
-7.7696123009
-7.83674786873
-7.90335989162
-7.96941659927
-8.03488508979
-8.0997309659
-8.16391774413
-8.22740753132
-8.29016130014
-8.35213759229
-8.41329314168
-8.47358357469
-8.53296234905
-8.59138073483
-8.64878834654
-8.70513314183
-8.76036093437
-8.81441556864
-8.86723895162
-8.91877091759
-8.96894953794
-9.01771066158
-9.06498812899
-9.11071398677
-9.15481820217
-9.197228498
-9.23787102593
-9.27667010787
-9.31354747704
-9.34842346194
-9.38121698982
-9.41184460537
-9.44022111583
-9.46626032815
-9.48987405827
-9.51097219108
-9.52946412662
-9.54525758571
-9.55825887867
-9.56837322647
-9.57550498998
-9.57955792098
-9.58043470809
-9.57803755866
-9.57226791675
-9.56302729639
-9.55021716154
-9.5337383432
-9.51349269415
-9.48938182252
-9.46130769406
-9.42917327729
-9.39288201401
-9.35233873642
-9.30744895545
-9.25811968648
-9.20425918734
-9.14577699569
-9.08258522046
-9.01459728581
-8.94172800003
-8.86389517968
-8.78101853131
-8.69301959021
-8.59982408206
-8.5013595444
-8.39755739253
-8.28835485366
-8.17369425427
-8.05352623718
-7.92781274744
-7.79653138741
-7.65967881477
-7.51728083967
-7.36939850234
-7.21612955245
-7.05761373263
-6.894013916
-6.72547227477
-6.55203762908
-6.37366852731
-1.98493664403
-1.95337601373
-1.97301996643
-2.03046516901
-2.10947902416
-2.20125745334
-2.29887488585
-2.39726271893
-2.49354432726
-2.58647822095
-2.67581077707
-2.7618145704
-2.84499030852
-2.92588918383
-3.00502328516
-3.08282744832
-3.15965171516
-3.23576756229
-3.31137948662
-3.38663832534
-3.46165305616
-3.53650134683
-3.61123715859
-3.68589732152
-3.76050805379
-3.83508423016
-3.90963698748
-3.98417277753
-4.05869509138
-4.13320552113
-4.20770466443
-4.2821922633
-4.35666744022
-4.43112896277
-4.50557546237
-4.58000528102
-4.65441654912
-4.72880749056
-4.80317620734
-4.87752041123
-4.95183778314
-5.02612581886
-5.10038190587
-5.17460315449
-5.24878651457
-5.32292873021
-5.39702632877
-5.47107553792
-5.54507203842
-5.61901151354
-5.69288942489
-5.76670057226
-5.84043944512
-5.91410043127
-5.98767732492
-6.06116321341
-6.13455112547
-6.20783356775
-6.28100224929
-6.3540485584
-6.42696322167
-6.49973634937
-6.57235750043
-6.64481539385
-6.71709803994
-6.7891930507
-6.86108696299
-6.93276520737
-7.00421290336
-7.07541425768
-7.14635204264
-7.21700835583
-7.28736462973
-7.35740077174
-7.42709542015
-7.49642644524
-7.56537054155
-7.63390304343
-7.7019979892
-7.7696279052
-7.83676427928
-7.90337728255
-7.96943511447
-8.03490463689
-8.09975151891
-8.16393944777
-8.22743034852
-8.29018518267
-8.35216277572
-8.41331969069
-8.47361133879
-8.53299139171
-8.59141126853
-8.64882043966
-8.70516679964
-8.76039615471
-8.81445238249
-8.86727745247
-8.91881113906
-8.96899164235
-9.01775483698
-9.06503429609
-9.11076198495
-9.15486828369
-9.19728096417
-9.2379257197
-9.27672706742
-9.31360703169
-9.34848565051
-9.38128177861
-9.4119122317
-9.44029180207
-9.4663342066
-9.48995140167
-9.51105331963
-9.5295492616
-9.54534702853
-9.55835320935
-9.56847300084
-9.57561086111
-9.57967049892
-9.58055481384
-9.57816641162
-9.57240696417
-9.56317807433
-9.55038154599
-9.53391865471
-9.5136916555
-9.48960265053
-9.46155428044
-9.42945039734
-9.39319534319
-9.35269507159
-9.30785627214
-9.25858771797
-9.20479989894
-9.14640436959
-9.08331573775
-9.01545112452
-8.94272942482
-8.86507253213
-8.78240620093
-8.69465850555
-8.60176267422
-8.50365644005
-8.40028181204
-8.29158848815
-8.17753430704
-8.05808725574
-7.93322744522
-7.80295425834
-7.66728644089
-7.5262695408
-7.37998440656
-7.22854574223
-7.07210552963
-6.91084740057
-6.74496592828
-6.57464939485
-6.40011531341
-2.00418548475
-1.97309148873
-1.98831529978
-2.03998199282
-2.11403990678
-2.20224124772
-2.29764503779
-2.39491386366
-2.4908259142
-2.58383661985
-2.67347192498
-2.75986236466
-2.84342666926
-2.92467501464
-3.00410334702
-3.08214461543
-3.15915388892
-3.23541046017
-3.31112727532
-3.38646295905
-3.46153305505
-3.53642056181
-3.61118383583
-3.6858632233
-3.76048653876
-3.83507121476
-3.90962946473
-3.9841687492
-4.05869327981
-4.13320507625
-4.2077049895
-4.2821930116
-4.35666836539
-4.43112999603
-4.50557647371
-4.58000629393
-4.65441755458
-4.72880839844
-4.80317706794
-4.87752130312
-4.9518386936
-5.02612670378
-5.10038276721
-5.17460409941
-5.24878759026
-5.32292990635
-5.39702752378
-5.47107677304
-5.54507340186
-5.6190130065
-5.69289103943
-5.76670231861
-5.84044130169
-5.91410239463
-5.9876794609
-6.06116552473
-6.13455355737
-6.20783609929
-6.28100494213
-6.35405148848
-6.42696639717
-6.49973967437
-6.57236095422
-6.64481914696
-6.71710214283
-6.78919738353
-6.86109157424
-6.93277014913
-7.00421805806
-7.0754197051
-7.14635800231
-7.21701476804
-7.28737133917
-7.35740786942
-7.4271030349
-7.49643455288
-7.56537911642
-7.63391204591
-7.70200750071
-7.76963802979
-7.83677486459
-7.9033883739
-7.96944699949
-8.03491723563
-8.09976465806
-8.16395334223
-8.22744502006
-8.29020038206
-8.35217869055
-8.41333659115
-8.47362909847
-8.53300986511
-8.59143053972
-8.64884061089
-8.70518797231
-8.76041828688
-8.81447543939
-8.86730163157
-8.9188364346
-8.96901792149
-9.01778226491
-9.06506314387
-9.11079212076
-9.15489954014
-9.19731366739
-9.23795992419
-9.27676264794
-9.31364416271
-9.3485245893
-9.38132255731
-9.41195488558
-9.44033645421
-9.46638106635
-9.49000078664
-9.51110544481
-9.52960439422
-9.54540570279
-9.55841564222
-9.56853958019
-9.57568240043
-9.57974791764
-9.58063890429
-9.57825816643
-9.5725077481
-9.56328955156
-9.55050560183
-9.53405749379
-9.51384802391
-9.48977979237
-9.46175605415
-9.42968143145
-9.39346117707
-9.35300256294
-9.30821344385
-9.25900386659
-9.20528644491
-9.14697528539
-9.08398725286
-9.01624204335
-8.94366311218
-8.86617687428
-8.78371332133
-8.69620693234
-8.60359864749
-8.50583404683
-8.40286486135
-8.29465328662
-8.18116885152
-8.06239446653
-7.9383282685
-7.80898594046
-7.67440629856
-7.53465691378
-7.38983784073
-7.24008763863
-7.08558896065
-6.92656670847
-6.76329251233
-6.59608942388
-6.42537944543
-2.00418616503
-1.97309084485
-1.98831550586
-2.0399821631
-2.11403982366
-2.20224138156
-2.29764520178
-2.39491391492
-2.49082592483
-2.58383657056
-2.67347185785
-2.75986230749
-2.84342662008
-2.92467501386
-3.00410339822
-3.08214469748
-3.15915397641
-3.23541052461
-3.31112731155
-3.38646303603
-3.46153321674
-3.53642070899
-3.61118388236
-3.68586315051
-3.76048648394
-3.83507127517
-3.90962958202
-3.98416882782
-4.05869333788
-4.13320520027
-4.20770517234
-4.282193241
-4.35666864422
-4.43113032126
-4.50557679931
-4.58000659062
-4.65441790085
-4.72880877673
-4.80317743761
-4.87752168999
-4.95183910604
-5.02612715101
-5.10038321527
-5.17460454227
-5.24878811161
-5.32293053478
-5.39702815605
-5.47107738457
-5.54507413013
-5.61901384159
-5.69289188932
-5.76670325732
-5.8404423527
-5.91410343338
-5.98768050145
-6.06116670794
-6.13455485418
-6.20783742707
-6.28100629309
-6.35405291037
-6.42696793679
-6.49974130959
-6.57236264668
-6.64482095245
-6.7171041401
-6.78919944987
-6.86109366865
-6.93277243195
-7.00422050799
-7.07542221487
-7.14636072911
-7.21701786618
-7.28737463072
-7.35741122172
-7.42710656623
-7.49643831185
-7.56538308853
-7.63391617705
-7.70201172381
-7.76964251294
-7.83677969278
-7.90339337086
-7.96945221759
-8.03492283112
-8.09977048062
-8.16395937927
-8.22745148302
-8.29020708317
-8.35218545128
-8.41334367766
-8.47363661262
-8.53301767319
-8.59143864216
-8.64884896931
-8.70519659743
-8.76042727917
-8.81448473152
-8.86731133237
-8.91884671124
-8.96902855533
-9.01779311872
-9.06507451419
-9.11080420727
-9.15491207035
-9.19732665178
-9.23797355015
-9.2767768771
-9.31365905988
-9.34854018682
-9.38133900387
-9.41197245642
-9.44035521777
-9.46640094207
-9.49002197524
-9.51112850891
-9.52962954186
-9.5454331793
-9.55844596917
-9.56857313517
-9.57571970284
-9.57978989397
-9.58068655208
-9.57831258808
-9.57257015649
-9.56336142803
-9.55058898671
-9.53415459566
-9.51396143556
-9.48991283196
-9.46191266911
-9.4298662834
-9.39367960225
-9.35326119635
-9.30852052486
-9.25936878912
-9.2057202689
-9.14749153648
-9.08460222576
-9.01697464017
-8.94453552976
-8.8672159856
-8.78495134569
-8.69768144031
-8.60535328827
-8.50792146593
-8.40534675402
-8.29760138484
-8.1846677081
-8.06654203507
-7.94323828525
-7.81479006422
-7.68125522009
-7.54272365182
-7.39932067501
-7.25121351494
-7.09862270971
-6.94182504718
-6.78116701049
-6.61708059703
-6.45012226475
-1.98493846259
-1.95337417004
-1.97302053819
-2.03046564952
-2.10947875824
-2.20125779021
-2.29887530882
-2.39726281106
-2.49354441271
-2.58647820477
-2.67581069669
-2.76181448261
-2.84499022034
-2.92588921446
-3.00502336557
-3.08282764121
-3.15965199291
-3.23576776659
-3.31137958689
-3.38663847955
-3.46165337054
-3.53650162259
-3.61123727527
-3.68589725751
-3.76050805631
-3.83508445182
-3.90963729699
-3.98417304131
-4.05869535882
-4.13320593488
-4.20770524978
-4.282192953
-4.35666820745
-4.43112983987
-4.50557635987
-4.5800061872
-4.65441758867
-4.72880861806
-4.80317733728
-4.87752157303
-4.95183899553
-5.02612710892
-5.10038327757
-5.17460461732
-5.24878816021
-5.32293059049
-5.39702822471
-5.47107742727
-5.54507420672
-5.61901398373
-5.69289199293
-5.7667033039
-5.84044243236
-5.91410353109
-5.98768056306
-6.06116675676
-6.13455491289
-6.20783751349
-6.28100638649
-6.3540529097
-6.42696786059
-6.49974125119
-6.57236259174
-6.64482082737
-6.71710395817
-6.78919918626
-6.86109332528
-6.93277212094
-7.00422024427
-7.07542190644
-7.14636034548
-7.21701749598
-7.28737428058
-7.35741079965
-7.42710604645
-7.49643773286
-7.565382447
-7.63391543266
-7.70201080244
-7.76964146399
-7.83677863533
-7.90339225067
-7.96945096826
-8.03492145844
-8.09976891707
-8.16395758026
-8.22744962388
-8.29020517203
-8.35218322875
-8.41334115553
-8.47363387913
-8.53301465285
-8.59143538128
-8.64884550126
-8.70519277082
-8.76042313734
-8.81448032795
-8.86730661516
-8.91884180147
-8.96902344137
-9.01778763129
-9.06506863058
-9.11079811656
-9.15490567936
-9.19731986736
-9.2379665748
-9.27676957601
-9.31365158923
-9.34853262428
-9.38133125076
-9.41196471958
-9.44034781148
-9.4663939093
-9.49001526372
-9.51112235661
-9.52962452254
-9.54542937806
-9.55844382823
-9.56857337776
-9.57572286654
-9.57979662377
-9.58069771279
-9.57832934836
-9.57259390593
-9.56339352437
-9.55063130659
-9.53420954588
-9.51403172626
-9.49000169747
-9.46202392712
-9.43000478586
-9.39385096218
-9.35347178033
-9.30877846559
-9.25968376956
-9.20610344433
-9.14795641932
-9.08516501419
-9.01765432151
-8.94535485366
-8.86820191118
-8.78613493411
-8.69910080255
-8.60705335161
-8.50995331355
-8.40777158878
-8.3004917192
-8.18810663818
-8.07062715521
-7.94808369203
-7.82052692947
-7.68803523773
-7.5507226089
-7.40874030441
-7.26228939464
-7.11162811756
-6.9570826869
-6.79906068974
-6.63806870998
-6.4747386187
-1.94270622789
-1.91165509979
-1.94158712725
-2.01135920713
-2.1005269669
-2.1994041438
-2.3012833605
-2.40175550391
-2.498682164
-2.59142848503
-2.68016563242
-2.76543184202
-2.84787681852
-2.92812444783
-3.00671327598
-3.08407995135
-3.16056394139
-3.23642133799
-3.31184084686
-3.38695901057
-3.46187260261
-3.53664907548
-3.61133480008
-3.68596120738
-3.76054771483
-3.835108466
-3.90965122565
-3.9841805571
-4.05869893888
-4.13320716929
-4.20770513136
-4.28219215438