/*--------------------------------*- C++ -*----------------------------------*\
| =========                 |                                                 |
| \\      /  F ield         | OpenFOAM: The Open Source CFD Toolbox           |
|  \\    /   O peration     | Version:  2106                                  |
|   \\  /    A nd           | Website:  www.openfoam.com                      |
|    \\/     M anipulation  |                                                 |
\*---------------------------------------------------------------------------*/
FoamFile
{
    version     2.0;
    format      ascii;
    arch        "LSB;label=32;scalar=64";
    class       surfaceScalarField;
    location    "0.145";
    object      phi;
}
// * * * * * * * * * * * * * * * * * * * * * * * * * * * * * * * * * * * * * //

dimensions      [0 3 -1 0 0 0 0];

oriented        oriented;

internalField   nonuniform List<scalar> 
22100
(
3.38461203249e-05
1.61538796729e-05
2.24572097377e-05
1.13889104564e-05
1.62585527156e-05
6.19865690354e-06
1.27977756131e-05
3.46077701789e-06
1.08046416167e-05
1.99313391572e-06
9.60458849733e-06
1.20005306752e-06
8.85132066954e-06
7.53267801759e-07
8.36435179947e-06
4.86968854412e-07
8.04433387213e-06
3.20017917406e-07
7.83283903576e-06
2.11494826355e-07
7.69339582958e-06
1.39443186054e-07
7.60223889695e-06
9.11568916626e-08
7.54347607211e-06
5.87627545587e-08
7.50633913336e-06
3.71368344572e-08
7.48349964858e-06
2.2839349401e-08
7.46997893769e-06
1.35205535328e-08
7.4624145594e-06
7.56421129693e-09
7.45854693623e-06
3.86746024578e-09
7.45682847219e-06
1.71831749558e-09
7.45642281965e-06
4.05532430814e-10
7.45677389207e-06
-3.51158891544e-10
7.45746158172e-06
-6.87743236528e-10
7.45822172674e-06
-7.60174558616e-10
7.4589491643e-06
-7.27458556734e-10
7.45959592395e-06
-6.46789263711e-10
7.46014258922e-06
-5.46715542494e-10
7.46058768233e-06
-4.45165491197e-10
7.46093962229e-06
-3.52025320356e-10
7.46121127084e-06
-2.71729434743e-10
7.46141665936e-06
-2.05445404808e-10
7.46156909954e-06
-1.52457267875e-10
7.46168021072e-06
-1.11080508992e-10
7.46175956145e-06
-7.92735848081e-11
7.46181523669e-06
-5.55631604448e-11
7.46185151411e-06
-3.6152683106e-11
7.46187294279e-06
-2.13199747424e-11
7.4618840155e-06
-1.10075553265e-11
7.46188838499e-06
-4.36274799856e-12
7.46188811112e-06
2.29034682377e-13
7.46188440675e-06
3.63725151349e-12
7.46187826528e-06
6.09570750561e-12
7.46187035742e-06
7.92906422815e-12
7.46186109071e-06
9.38949328296e-12
7.4618506581e-06
1.0670314684e-11
7.46183904457e-06
1.19513839599e-11
7.46182607841e-06
1.33605786899e-11
7.46181147791e-06
1.49913381727e-11
7.46179487168e-06
1.69328229083e-11
7.4617757908e-06
1.92969622554e-11
7.4617537259e-06
2.21474498999e-11
7.46172810598e-06
2.5571231538e-11
7.46169827705e-06
2.96761366096e-11
7.46166348678e-06
3.45705926603e-11
7.46162289358e-06
4.03511186718e-11
7.46157559769e-06
4.70724756625e-11
7.4615207207e-06
5.4700799348e-11
7.46145751288e-06
6.30905733258e-11
7.46138561982e-06
7.18405246069e-11
7.46130562188e-06
8.00141917731e-11
7.46121980879e-06
8.58820162261e-11
7.46113405127e-06
8.58577013815e-11
7.46106066396e-06
7.35028943417e-11
7.46100836068e-06
5.24127521136e-11
7.46099541202e-06
1.30269214899e-11
7.46105776642e-06
-6.23139389975e-11
7.46125398683e-06
-1.96210946236e-10
7.46167925954e-06
-4.25289282967e-10
7.46248493347e-06
-8.0569743208e-10
7.46390846157e-06
-1.42354064176e-09
7.46630858269e-06
-2.40010164592e-09
7.47013803462e-06
-3.82936354396e-09
7.47662572634e-06
-6.48752946954e-09
7.48746855189e-06
-1.084260466e-08
7.50577157744e-06
-1.83027672667e-08
7.53918329632e-06
-3.34114890169e-08
7.60883696616e-06
-6.96535150608e-08
7.77651735421e-06
-1.67680354722e-07
8.23427242669e-06
-4.57755175845e-07
9.71198261797e-06
-1.47771040981e-06
-5.49826514406e-06
1.52102474344e-05
5.02175947968e-05
1.5936284743e-05
4.42441113887e-05
1.73623936793e-05
3.77795010511e-05
1.26632670736e-05
3.26461433636e-05
8.59413459037e-06
2.89380910414e-05
5.70118614877e-06
2.63596204636e-05
3.77852358559e-06
2.45875159083e-05
2.52537231959e-06
2.33734737305e-05
1.70101099962e-06
2.25435245846e-05
1.14996702335e-06
2.19782158247e-05
7.76803524933e-07
2.15955132468e-05
5.22145665451e-07
2.13387366712e-05
3.47933319761e-07
2.11684952082e-05
2.29004016656e-07
2.10573377819e-05
1.48294013107e-07
2.09861502505e-05
9.40266021965e-08
2.09416785444e-05
5.79919705052e-08
2.09147977901e-05
3.44446880503e-08
2.08993002477e-05
1.93647561347e-08
2.08910787245e-05
9.93964060937e-09
2.08872812017e-05
4.20290930972e-09
2.08862169243e-05
7.13023010143e-10
2.08864663865e-05
-9.37268321593e-10
2.08873430025e-05
-1.63684585811e-09
2.08884885229e-05
-1.87305261671e-09
2.08896685895e-05
-1.82696413343e-09
2.08907589516e-05
-1.63722027652e-09
2.08917044276e-05
-1.39080258774e-09
2.08924901837e-05
-1.13793260244e-09
2.08931237736e-05
-9.05428702793e-10
2.08936241072e-05
-7.05821199432e-10
2.0894015445e-05
-5.43755107813e-10
2.08943257695e-05
-4.21284714501e-10
2.0894545335e-05
-2.98660272949e-10
2.08947001955e-05
-2.10223613633e-10
2.08948075571e-05
-1.43339901202e-10
2.08948791831e-05
-9.28388614716e-11
2.08949245976e-05
-5.64020334711e-11
2.08949524149e-05
-3.22338268696e-11
2.08949676907e-05
-1.5127678864e-11
2.08949734486e-05
-2.16009817015e-12
2.08949721631e-05
7.45384760312e-12
2.08949655931e-05
1.47360869361e-11
2.08949549408e-05
2.04613997205e-11
2.08949409786e-05
2.52082162885e-11
2.08949240904e-05
2.95010806021e-11
2.08949043945e-05
3.37073283445e-11
2.0894881846e-05
3.80846984679e-11
2.08948562981e-05
4.28465880949e-11
2.08948275037e-05
4.82400013434e-11
2.08947952417e-05
5.43453081476e-11
2.08947593163e-05
6.1256798013e-11
2.08947195932e-05
6.90449022555e-11
2.08946760716e-05
7.76943938175e-11
2.08946290094e-05
8.70448144538e-11
2.08945791319e-05
9.6660556484e-11
2.08945280254e-05
1.05617261471e-10
2.08944787263e-05
1.1230417353e-10
2.0894436683e-05
1.13899164307e-10
2.08944111453e-05
1.05650137132e-10
2.0894417098e-05
8.00874700749e-11
2.08944804615e-05
2.26947180557e-11
2.08946502141e-05
-9.60393135554e-11
2.08949948032e-05
-2.91997364309e-10
2.08956318965e-05
-6.23940373873e-10
2.08966777846e-05
-1.10813751312e-09
2.0898301811e-05
-1.82023600608e-09
2.0900865062e-05
-2.98856888398e-09
2.09049201033e-05
-4.86075374757e-09
2.09113438982e-05
-7.84729851911e-09
2.09215736951e-05
-1.26297626666e-08
2.09381244444e-05
-2.03798793558e-08
2.09651727781e-05
-3.3535550677e-08
2.10097296747e-05
-5.53991403794e-08
2.10850910598e-05
-9.36638499124e-08
2.12174258851e-05
-1.65746146347e-07
2.14601546079e-05
-3.12382289939e-07
2.19223035384e-05
-6.29829599408e-07
2.28185521532e-05
-1.35400432771e-06
2.44823385371e-05
-3.14149737995e-06
-7.11733193857e-06
2.61014050444e-05
5.35171052511e-05
1.24191793672e-05
5.29349680495e-05
1.79445307005e-05
4.96538396239e-05
1.59443953435e-05
4.58401807226e-05
1.24077933823e-05
4.24400914783e-05
9.10127530694e-06
3.97291713037e-05
6.48944370813e-06
3.76873046455e-05
4.5672389518e-06
3.61976616613e-05
3.19065396694e-06
3.51326108916e-05
2.21501777339e-06
3.43823657261e-05
1.52704865298e-06
3.38606246618e-05
1.04388665845e-06
3.35023443968e-05
7.06213466684e-07
3.32595995793e-05
4.71748665645e-07
3.30975895418e-05
3.10303837486e-07
3.29913340166e-05
2.00281883367e-07
3.29230930872e-05
1.26232643668e-07
3.28804066153e-05
7.71309106825e-08
3.28546236304e-05
4.51475177465e-08
3.28397995052e-05
2.47635831553e-08
3.28318769388e-05
1.21253410227e-08
3.28280115921e-05
4.57827784777e-09
3.28270197583e-05
5.45024897575e-11
3.28272069889e-05
-1.82413136086e-09
3.28280633071e-05
-2.72943814654e-09
3.28291879544e-05
-2.95170330671e-09
3.28303449046e-05
-2.79428718422e-09
3.2831411295e-05
-2.4573219618e-09
3.28323326928e-05
-2.05944842312e-09
3.28330941261e-05
-1.66694272382e-09
3.28337015986e-05
-1.31331497587e-09
3.28341701207e-05
-1.01222785383e-09
3.28345152254e-05
-7.66273154521e-10
3.28347902586e-05
-5.73531431638e-10
3.28350132096e-05
-4.33002620346e-10
3.28351711431e-05
-3.01133953166e-10
3.28352783483e-05
-1.99970651688e-10
3.28353508182e-05
-1.2887653244e-10
3.28353980148e-05
-7.9495418382e-11
3.2835427076e-05
-4.42672799873e-11
3.28354422749e-05
-1.73893547458e-11
3.28354471743e-05
2.63320335013e-12
3.28354443398e-05
1.78020291364e-11
3.28354356601e-05
2.95343901626e-11
3.28354224599e-05
3.89309312993e-11
3.28354055359e-05
4.70067769178e-11
3.28353853682e-05
5.44309970528e-11
3.28353622604e-05
6.16414573188e-11
3.28353363794e-05
6.90087294801e-11
3.2835307681e-05
7.70270093485e-11
3.28352763193e-05
8.56173323938e-11
3.28352426402e-05
9.47075702604e-11
3.28352072127e-05
1.04162447304e-10
3.28351709859e-05
1.13591909142e-10
3.28351355587e-05
1.22176096949e-10
3.28351036445e-05
1.28345436249e-10
3.28350797563e-05
1.29363319659e-10
3.2835070817e-05
1.21197374563e-10
3.28350873667e-05
9.73893349099e-11
3.2835146336e-05
4.67796102372e-11
3.28352764602e-05
-4.98945892285e-11
3.28355283504e-05
-2.29029646121e-10
3.28359890198e-05
-5.56554487062e-10
3.28366867126e-05
-9.89570614275e-10
3.28377027651e-05
-1.63991626074e-09
3.28392907181e-05
-2.69606352179e-09
3.28418370288e-05
-4.36655591116e-09
3.28458480696e-05
-6.99963251679e-09
3.28521440632e-05
-1.11567573072e-08
3.28620491374e-05
-1.77523137833e-08
3.28777476107e-05
-2.83280800143e-08
3.2902934336e-05
-4.55663538513e-08
3.29430186233e-05
-7.36194966471e-08
3.30079400536e-05
-1.20320210976e-07
3.31148745491e-05
-2.00598034806e-07
3.32931943551e-05
-3.44065781306e-07
3.35917688825e-05
-6.10956845823e-07
3.40828772755e-05
-1.12093819653e-06
3.48346064423e-05
-2.10573397483e-06
3.57127564887e-05
-4.01964812725e-06
-7.20573194983e-06
3.58011555225e-05
5.35105663792e-05
8.90861287528e-06
5.55742219756e-05
1.58808749219e-05
5.52424820666e-05
1.62761350956e-05
5.35977853459e-05
1.40524899959e-05
5.15418469192e-05
1.11572136491e-05
4.95802790126e-05
8.45101156533e-06
4.79243498829e-05
6.22316805902e-06
4.66181379233e-05
4.49686591332e-06
4.56304650567e-05
3.20269062327e-06
4.49051160654e-05
2.25239760881e-06
4.43840888637e-05
1.56491378925e-06
4.4016692757e-05
1.07360945627e-06
4.37619664113e-05
7.26474845752e-07
4.3588268131e-05
4.84001910209e-07
4.34718693747e-05
3.16680404147e-07
4.33953603007e-05
2.02741471027e-07
4.33461915446e-05
1.26299428347e-07
4.33154561125e-05
7.58827368178e-08
4.32969227025e-05
4.32968180213e-08
4.32863004403e-05
2.27474704092e-08
4.32807020555e-05
1.01765674772e-08
4.32778992724e-05
2.85721488021e-09
4.32770796904e-05
-1.00461449876e-09
4.32773052741e-05
-2.95509818664e-09
4.32780014194e-05
-3.64794748849e-09
4.32788738905e-05
-3.6668797761e-09
4.32797567734e-05
-3.34033607538e-09
4.32805647871e-05
-2.86758045282e-09
4.32812613829e-05
-2.36361847114e-09
4.32818381164e-05
-1.89006898404e-09
4.32823016381e-05
-1.47570007574e-09
4.32826647661e-05
-1.12928766256e-09
4.32829375837e-05
-8.46195289423e-10
4.32831252546e-05
-6.20516353212e-10
4.32832654888e-05
-4.41246523714e-10
4.32833621304e-05
-2.96556228189e-10
4.3283419771e-05
-1.86533168009e-10
4.32834643431e-05
-1.2413359562e-10
4.32834931579e-05
-7.3152013766e-11
4.32835085052e-05
-3.27509704879e-11
4.32835141754e-05
-2.93924342348e-12
4.32835122567e-05
1.99670436266e-11
4.32835043962e-05
3.77911359912e-11
4.32834918858e-05
5.19482419376e-11
4.32834754045e-05
6.40386967858e-11
4.3283455358e-05
7.49914604365e-11
4.328343204e-05
8.53622470438e-11
4.32834057175e-05
9.55700922422e-11
4.32833768669e-05
1.05938775217e-10
4.32833459687e-05
1.1641661532e-10
4.32833136457e-05
1.26813055704e-10
4.32832808745e-05
1.36652838966e-10
4.32832491069e-05
1.45072298604e-10
4.32832204264e-05
1.50604219451e-10
4.32831977583e-05
1.50820781e-10
4.32831852282e-05
1.41776364127e-10
4.32831894997e-05
1.16891563302e-10
4.32832220707e-05
6.48577314184e-11
4.32833008168e-05
-3.18616832177e-11
4.32834474728e-05
-1.96393673933e-10
4.32836631886e-05
-4.4456949627e-10
4.32840771426e-05
-9.70349440682e-10
4.32848083824e-05
-1.72068796116e-09
4.32860223135e-05
-2.85377913995e-09
4.32879233942e-05
-4.597129245e-09
4.32908608368e-05
-7.30401851273e-09
4.32953968275e-05
-1.15356600099e-08
4.33024158902e-05
-1.81758263352e-08
4.33133114508e-05
-2.86478095566e-08
4.33302621245e-05
-4.5278602543e-08
4.33566145297e-05
-7.1918498621e-08
4.33980023508e-05
-1.15006982013e-07
4.34633887278e-05
-1.85706224011e-07
4.3566691934e-05
-3.03900934757e-07
4.37281970811e-05
-5.05570773983e-07
4.39730364405e-05
-8.55796261079e-07
4.43186500884e-05
-1.46655213963e-06
4.4727152783e-05
-2.51423699402e-06
4.49574299777e-05
-4.24992573378e-06
-6.68561753802e-06
4.44373147702e-05
5.27351379153e-05
6.17347485099e-06
5.5730934179e-05
1.28850784669e-05
5.7311473839e-05
1.46955952691e-05
5.76109912103e-05
1.37529725115e-05
5.71335219483e-05
1.16346828214e-05
5.63194674035e-05
9.26506605876e-06
5.54489872765e-05
7.09364816447e-06
5.46629768022e-05
5.28287637686e-06
5.40136813545e-05
3.85198605809e-06
5.35061501572e-05
2.75992877533e-06
5.3124254399e-05
1.94680948257e-06
5.2844985058e-05
1.35287868814e-06
5.26454390928e-05
9.26020655386e-07
5.2505715258e-05
6.23725548888e-07
5.24097210963e-05
4.12674341166e-07
5.23450159741e-05
2.67446355643e-07
5.23022794105e-05
1.69035758659e-07
5.22746939681e-05
1.0346796699e-07
5.22573716831e-05
6.06189223954e-08
5.22468658346e-05
3.32531741611e-08
5.22407695383e-05
1.6272751438e-08
5.22374653776e-05
6.16128490665e-09
5.22359709541e-05
4.89724936729e-10
5.22354687919e-05
-2.45302857872e-09
5.22355399652e-05
-3.71923205207e-09
5.22358921599e-05
-4.0192028106e-09
5.22363536305e-05
-3.80193846283e-09
5.22368276849e-05
-3.34174741778e-09
5.22372631684e-05
-2.79917101514e-09
5.22376372509e-05
-2.26415816082e-09
5.22379431283e-05
-1.78151589147e-09
5.2238183251e-05
-1.36929116858e-09
5.22383674734e-05
-1.03026764146e-09
5.22385073202e-05
-7.60219096741e-10
5.22386133035e-05
-5.47128601618e-10
5.22386991099e-05
-3.82327237601e-10
5.2238771696e-05
-2.59149838395e-10
5.22388175324e-05
-1.700389232e-10
5.22388524018e-05
-1.08080361094e-10
5.22388719661e-05
-5.2305765479e-11
5.22388797915e-05
-1.06347668755e-11
5.22388792774e-05
2.07581055e-11
5.22388725286e-05
4.49534038397e-11
5.22388609093e-05
6.40732219403e-11
5.22388453595e-05
8.01171276252e-11
5.22388265185e-05
9.43049611839e-11
5.2238805024e-05
1.07205167136e-10
5.22387821349e-05
1.18643701887e-10
5.22387558607e-05
1.32231183782e-10
5.22387271528e-05
1.45000205284e-10
5.22386970753e-05
1.56669004239e-10
5.22386666387e-05
1.668255473e-10
5.22386373e-05
1.74159335601e-10
5.22386112555e-05
1.76440882841e-10
5.22385922617e-05
1.69669042709e-10
5.22385889056e-05
1.45057878055e-10
5.22386121436e-05
9.36453212792e-11
5.22386713054e-05
5.75066141984e-12
5.2238780966e-05
-1.41405918259e-10
5.22389511106e-05
-3.66382091269e-10
5.22392632033e-05
-7.56497022553e-10
5.22397520813e-05
-1.45907418869e-09
5.22404878107e-05
-2.45629964751e-09
5.22416036949e-05
-3.96959884907e-09
5.22433029007e-05
-6.29632008049e-09
5.22458876952e-05
-9.88883852431e-09
5.22498115508e-05
-1.54595465118e-08
5.22557689082e-05
-2.41331750478e-08
5.22648260117e-05
-3.77048356756e-08
5.22786152086e-05
-5.90676105134e-08
5.22996224201e-05
-9.29254232595e-08
5.23316095014e-05
-1.46993725623e-07
5.2380000618e-05
-2.34097016289e-07
5.24518560182e-05
-3.75756125885e-07
5.2554246649e-05
-6.07961343997e-07
5.26879986491e-05
-9.89548404672e-07
5.28311549045e-05
-1.60970884924e-06
5.29021501806e-05
-2.58523279279e-06
5.26871775837e-05
-4.03495355446e-06
-5.87533518629e-06
5.18768945941e-05
5.19834863789e-05
4.18998835638e-06
5.505866371e-05
9.80990093094e-06
5.76386127929e-05
1.21156460096e-05
5.93259026407e-05
1.20656825455e-05
6.02280146028e-05
1.07325707678e-05
6.05929257576e-05
8.90015485488e-06
6.06482826845e-05
7.0382912208e-06
6.05531882503e-05
5.37797080661e-06
6.04029537058e-05
4.00222059651e-06
6.02479132226e-05
2.91496923479e-06
6.01107876979e-05
2.08393495049e-06
5.99990281566e-05
1.46463812882e-06
5.99125129471e-05
1.01253571775e-06
5.98479210225e-05
6.88317284348e-07
5.98010174529e-05
4.5957769041e-07
5.97677328663e-05
3.0073070634e-07
5.97445916845e-05
1.92176706239e-07
5.9728813466e-05
1.19245968439e-07
5.97182658382e-05
7.11663610142e-08
5.97113603942e-05
4.01584615835e-08
5.97069420643e-05
2.06909550316e-08
5.97042095736e-05
8.89367119549e-09
5.97026019561e-05
2.09724671467e-09
5.9701699355e-05
-1.55052902192e-09
5.97012431797e-05
-3.26317231533e-09
5.97010559737e-05
-3.83212395004e-09
5.97010222273e-05
-3.76831745623e-09
5.97010692479e-05
-3.38887001491e-09
5.97011532561e-05
-2.88323580777e-09
5.97012485419e-05
-2.35944071942e-09
5.97013411246e-05
-1.87403324414e-09
5.9701424281e-05
-1.4523338844e-09
5.97014962864e-05
-1.10213825424e-09
5.97015578849e-05
-8.21696515337e-10
5.97016098711e-05
-5.99039244078e-10
5.97016518054e-05
-4.24248334875e-10
5.97016819831e-05
-2.89368725317e-10
5.97017004491e-05
-1.88568717832e-10
5.97017037235e-05
-1.113913345e-10
5.9701694127e-05
-4.26638549722e-11
5.97016875484e-05
-3.8871292855e-12
5.97016787887e-05
2.98249797197e-11
5.97016678469e-05
5.63203539025e-11
5.97016562025e-05
7.62112072902e-11
5.97016421941e-05
9.46149229203e-11
5.97016253817e-05
1.11528722153e-10
5.970160556e-05
1.27304643201e-10
5.97015820968e-05
1.42228147596e-10
5.9701557895e-05
1.56408684628e-10
5.97015331736e-05
1.69579467793e-10
5.97015084662e-05
1.81166415521e-10
5.97014850655e-05
1.90001211363e-10
5.97014647458e-05
1.94276150849e-10
5.97014495982e-05
1.91432981194e-10
5.97014409703e-05
1.78201111922e-10
5.97014346943e-05
1.51300018384e-10
5.97014274813e-05
1.00878374947e-10
5.97014362379e-05
-2.93184056287e-12
5.97014780223e-05
-1.83072586434e-10
5.97016417306e-05
-5.29945871784e-10
5.97019180623e-05
-1.03267389332e-09
5.97022759954e-05
-1.81686667014e-09
5.97028156485e-05
-2.99585373778e-09
5.97036206763e-05
-4.77457490792e-09
5.97048035444e-05
-7.47917894855e-09
5.9706527898e-05
-1.1613206645e-08
5.970903066e-05
-1.79623106517e-08
5.97126543662e-05
-2.77568431012e-08
5.97178886041e-05
-4.2938942735e-08
5.97254171418e-05
-6.65959105243e-08
5.9736150993e-05
-1.03658964461e-07
5.9751162935e-05
-1.62005325532e-07
5.97713112874e-05
-2.54245063387e-07
5.97960355851e-05
-4.00480226795e-07
5.9820206954e-05
-6.32132695224e-07
5.98269248108e-05
-9.96266464982e-07
5.97739262479e-05
-1.55671073992e-06
5.95725304611e-05
-2.38383759718e-06
5.90629430756e-05
-3.52536664602e-06
-4.89306836224e-06
5.80806757672e-05
5.14373052746e-05
2.75268295574e-06
5.42658203063e-05
6.98138568121e-06
5.72496428296e-05
9.13182330051e-06
5.97900271054e-05
9.52529814729e-06
6.17201275513e-05
8.80247022959e-06
6.30883025025e-05
7.53197985628e-06
6.40167161087e-05
6.1098776012e-06
6.46292359749e-05
4.76545094063e-06
6.50258030043e-05
3.60565356675e-06
6.52790776287e-05
2.66169459393e-06
6.54389726742e-05
1.92403985611e-06
6.55386894216e-05
1.36492128894e-06
6.55999277733e-05
9.51297225631e-07
6.56367422798e-05
6.51502593434e-07
6.56581929288e-05
4.38126823441e-07
6.56701005398e-05
2.88822859937e-07
6.56761889864e-05
1.86088023762e-07
6.56788243007e-05
1.16610432358e-07
6.56794935219e-05
7.04969427967e-08
6.56791158465e-05
4.05359697878e-08
6.56782466954e-05
2.15599676886e-08
6.56772137144e-05
9.92653474805e-09
6.56762020719e-05
3.10878011934e-09
6.56752906077e-05
-6.39177252256e-10
6.56745189556e-05
-2.49164187834e-09
6.56738874238e-05
-3.20071964914e-09
6.5673385207e-05
-3.26622061248e-09
6.5672994889e-05
-2.99864478252e-09
6.56726975444e-05
-2.58593908525e-09
6.56724750762e-05
-2.1369649808e-09
6.56723114306e-05
-1.71032579952e-09
6.56721929931e-05
-1.33379594681e-09
6.56721079906e-05
-1.01702291375e-09
6.56720456713e-05
-7.59283904799e-10
6.56719999622e-05
-5.5328256586e-10
6.56719667096e-05
-3.91002592661e-10
6.56719407148e-05
-2.63421347646e-10
6.56719176708e-05
-1.65576744072e-10
6.5671898603e-05
-9.23309745584e-11
6.56718951673e-05
-3.91441616765e-11
6.56718933184e-05
-1.83096531336e-12
6.56718861613e-05
3.73151940699e-11
6.567187636e-05
6.65524672743e-11
6.56718634265e-05
8.96162233757e-11
6.56718486944e-05
1.09787830853e-10
6.56718322219e-05
1.28345494368e-10
6.56718138032e-05
1.4593132973e-10
6.56717933325e-05
1.6276169059e-10
6.56717719866e-05
1.77692024445e-10
6.56717507654e-05
1.90653209003e-10
6.56717286829e-05
2.03066779371e-10
6.56717063698e-05
2.12138933582e-10
6.56716848359e-05
2.15663408454e-10
6.56716656245e-05
2.10540891337e-10
6.5671651452e-05
1.92323850763e-10
6.5671647995e-05
1.54756741985e-10
6.56716571364e-05
9.17818535636e-11
6.56716652001e-05
-1.09134600692e-11
6.56717275048e-05
-2.45267291162e-10
6.56718046917e-05
-6.06998335973e-10
6.56719298213e-05
-1.15765486186e-09
6.5672109066e-05
-1.99597941453e-09
6.56723560822e-05
-3.24277584312e-09
6.56726856718e-05
-5.10411460426e-09
6.56731062118e-05
-7.89970841341e-09
6.56736121844e-05
-1.21191751673e-08
6.56741695756e-05
-1.85196755718e-08
6.56746854337e-05
-2.82726125211e-08
6.56749493547e-05
-4.320268952e-08
6.56745224113e-05
-6.6168719657e-08
6.56725249874e-05
-1.01661213813e-07
6.56671891259e-05
-1.56669111948e-07
6.56549329241e-05
-2.41988579096e-07
6.5628548581e-05
-3.74095746478e-07
6.55737345471e-05
-5.77318702418e-07
6.54629580785e-05
-8.85490238958e-07
6.52464454313e-05
-1.3401985504e-06
6.48429478048e-05
-1.98034053351e-06
6.41377430893e-05
-2.82016241794e-06
-3.79211009727e-06
6.30367844368e-05
5.10850422575e-05
1.66764056219e-06
5.36118442844e-05
4.45458342508e-06
5.66873160841e-05
6.05635130683e-06
5.96894460576e-05
6.52316804689e-06
6.22997266768e-05
6.19218951561e-06
6.44136883132e-05
5.41801817244e-06
6.60471845808e-05
4.47638132242e-06
6.72686162807e-05
3.54401924591e-06
6.81598954777e-05
2.71437437797e-06
6.87977622118e-05
2.02382785432e-06
6.92467466556e-05
1.47505537554e-06
6.95579654372e-05
1.05370242612e-06
6.97704318866e-05
7.38830645449e-07
6.99131744932e-05
5.08759809227e-07
7.00073848571e-05
3.43916246228e-07
7.00682933162e-05
2.27914167434e-07
7.01066937962e-05
1.47687306498e-07
7.01301340095e-05
9.3169992042e-08
7.01438204063e-05
5.68103393847e-08
7.01512930504e-05
3.30631453249e-08
7.01549212607e-05
1.79316025973e-08
7.01562638817e-05
8.58377755404e-09
7.01563291916e-05
3.04334286124e-09
7.01557318148e-05
-4.19272971494e-11
7.01548627164e-05
-1.62267297229e-09
7.01539307164e-05
-2.26884631149e-09
7.01530531433e-05
-2.38875898404e-09
7.01522838132e-05
-2.22939542534e-09
7.01516401173e-05
-1.94227944801e-09
7.01511193848e-05
-1.61621859064e-09
7.01507088863e-05
-1.29976725509e-09
7.01503918668e-05
-1.01668669977e-09
7.01501509018e-05
-7.7596635083e-10
7.01499698411e-05
-5.78157526787e-10
7.01498356447e-05
-4.19065960913e-10
7.01497376431e-05
-2.93025774206e-10
7.01496684431e-05
-1.9426968015e-10
7.01496213869e-05
-1.18553640514e-10
7.01495895483e-05
-6.04647101173e-11
7.01495584762e-05
-7.94381910487e-12
7.01495314374e-05
2.54567641375e-11
7.01495154034e-05
5.37093658031e-11
7.01495035227e-05
7.8864624624e-11
7.01494926908e-05
1.00889691916e-10
7.01494818777e-05
1.2098274621e-10
7.01494705567e-05
1.39936275465e-10
7.01494585015e-05
1.58120707771e-10
7.01494456927e-05
1.75573107885e-10
7.01494312092e-05
1.9207843426e-10
7.01494145411e-05
2.0717462603e-10
7.01493974004e-05
2.20058550415e-10
7.01493803546e-05
2.29059708109e-10
7.01493641008e-05
2.31830363139e-10
7.01493493525e-05
2.25245966143e-10
7.01493362776e-05
2.05394349432e-10
7.01493232552e-05
1.67807195994e-10
7.01493061919e-05
1.08903604617e-10
7.01492977975e-05
-2.43491186239e-12
7.01492852275e-05
-2.32592287707e-10
7.01492900328e-05
-6.11679301779e-10
7.01492925961e-05
-1.1600920517e-09
7.01492686111e-05
-1.97188241208e-09
7.01491886611e-05
-3.16273946143e-09
7.01489970741e-05
-4.91247885828e-09
7.01485910886e-05
-7.49369176628e-09
7.01477906838e-05
-1.13187314729e-08
7.01462883399e-05
-1.70172609518e-08
7.01435584788e-05
-2.55426215989e-08
7.0138707272e-05
-3.83512995867e-08
7.01302275958e-05
-5.76887968209e-08
7.0115605559e-05
-8.70388896665e-08
7.00906036277e-05
-1.31666893409e-07
7.004801956e-05
-1.99404313706e-07
6.9975701048e-05
-3.01777159399e-07
6.98533786828e-05
-4.54996430246e-07
6.96480875319e-05
-6.80199354492e-07
6.93090233393e-05
-1.00113480416e-06
6.87651395743e-05
-1.43645728894e-06
6.79314419738e-05
-1.98646525892e-06
-2.60694942702e-06
6.67462810009e-05
5.08804130836e-05
7.87227334425e-07
5.31704659005e-05
2.16453036953e-06
5.62177493467e-05
3.00906765875e-06
5.94382693321e-05
3.30264792918e-06
6.2444969182e-05
3.18548956723e-06
6.50382527e-05
2.8247346063e-06
6.71548664166e-05
2.35976759753e-06
6.8813565076e-05
1.88532059988e-06
7.00731712281e-05
1.45476824605e-06
7.10056682833e-05
1.09133080816e-06
7.16812645498e-05
7.99459086946e-07
7.21614236941e-05
5.73543214177e-07
7.24966041425e-05
4.03650077136e-07
7.27264798602e-05
2.78883922991e-07
7.28812774657e-05
1.89118433994e-07
7.29834653466e-05
1.25726055794e-07
7.30494065527e-05
8.1745861047e-08
7.30908052495e-05
5.17710609994e-08
7.31158948154e-05
3.17205548331e-08
7.31303738652e-05
1.85838981121e-08
7.31381219324e-05
1.01833592022e-08
7.31417345196e-05
4.97103130215e-09
7.31429136979e-05
1.86401657487e-09
7.3142755112e-05
1.16517006608e-10
7.31419208375e-05
-7.8853307357e-10
7.31408251628e-05
-1.17329302298e-09
7.31396966106e-05
-1.26030589915e-09
7.31386548545e-05
-1.18770437354e-09
7.31377526387e-05
-1.04008539836e-09
7.31370041248e-05
-8.67681008073e-10
7.31364022584e-05
-6.97840048996e-10
7.313592992e-05
-5.44270090793e-10
7.31355664761e-05
-4.1245307351e-10
7.31352914577e-05
-3.03103691746e-10
7.31350866271e-05
-2.14243135361e-10
7.31349364814e-05
-1.42921544486e-10
7.31348281034e-05
-8.59384096179e-11
7.3134749662e-05
-4.01230647923e-11
7.31346889144e-05
3.50484903515e-13
7.31346535558e-05
2.7592000264e-11
7.31346271627e-05
5.21422963063e-11
7.31346073861e-05
7.38708164724e-11
7.31345928081e-05
9.38705079282e-11
7.31345814645e-05
1.12638093242e-10
7.31345718939e-05
1.3086951638e-10
7.31345630509e-05
1.48967724467e-10
7.31345541861e-05
1.67039884455e-10
7.31345447707e-05
1.8493189333e-10
7.31345345153e-05
2.02210255213e-10
7.31345233135e-05
2.18237551039e-10
7.31345111536e-05
2.32100950729e-10
7.31344980246e-05
2.4211472323e-10
7.31344839217e-05
2.45912110876e-10
7.31344688424e-05
2.40345628119e-10
7.31344529097e-05
2.21366159559e-10
7.31344366061e-05
1.84161077066e-10
7.31344211777e-05
1.2439449488e-10
7.31343923536e-05
2.64684898598e-11
7.31343440633e-05
-1.84202733825e-10
7.31342659274e-05
-5.33432297955e-10
7.313413569e-05
-1.02974469385e-09
7.31339099676e-05
-1.74606126006e-09
7.31335182519e-05
-2.77095021783e-09
7.31328426882e-05
-4.23685761673e-09
7.31316851348e-05
-6.33607880221e-09
7.31297179224e-05
-9.35144614686e-09
7.31264085605e-05
-1.37077755781e-08
7.3120880435e-05
-2.00143169763e-08
7.31116925553e-05
-2.91631882168e-08
7.30965055157e-05
-4.25014948593e-08
7.30715767656e-05
-6.21098515274e-08
7.30308851348e-05
-9.09750269115e-08
7.29647540686e-05
-1.33273104524e-07
7.28579107816e-05
-1.9493387716e-07
7.26867691889e-05
-2.83855001925e-07
7.2416145597e-05
-4.09576080472e-07
7.19965836077e-05
-5.81573244295e-07
7.13651797415e-05
-8.0505386479e-07
7.04538468107e-05
-1.07513269435e-06
-1.36757886141e-06
6.92144760512e-05
5.07871724842e-05
5.46997709503e-11
5.29516495677e-05
5.3038923734e-11
5.59606880748e-05
2.89415071068e-11
5.92633215205e-05
1.4344773333e-11
6.24488081026e-05
2.88273346888e-12
6.5273548719e-05
-6.05861811463e-12
6.76333283491e-05
-1.20363553661e-11
6.95186640249e-05
-1.50531393175e-11
7.0973447835e-05
-1.55311984715e-11
7.20647927243e-05
-1.40583245927e-11
7.28642630681e-05
-1.12651999683e-11
7.34378140362e-05
-7.80916855636e-12
7.38414683587e-05
-4.35375640863e-12
7.41203536723e-05
-1.54920721144e-12
7.43094719174e-05
-1.08037924432e-14
7.44351978289e-05
-8.37437996114e-14
7.45169455404e-05
-2.09270129072e-12
7.45687221408e-05
-5.78238479753e-12
7.46004529859e-05
-1.05235929036e-11
7.46190520176e-05
-1.53513263826e-11
7.46292543332e-05
-1.91564724639e-11
7.46342460533e-05
-2.08723049014e-11
7.46361300202e-05
-2.0118647653e-11
7.46362645895e-05
-1.82060820045e-11
7.46354915172e-05
-1.55978673625e-11
7.46343306074e-05
-1.249806005e-11
7.4633079318e-05
-9.10114645208e-12
7.46318968903e-05
-5.32451964384e-12
7.46308575154e-05
-7.16422846938e-13
7.46299864537e-05
3.4142472358e-12
7.4629280661e-05
8.01297976999e-12
7.46287234339e-05
1.30210701691e-11
7.46282926618e-05
1.83615488308e-11
7.46279654933e-05
2.40684235307e-11
7.4627720902e-05
3.03125922713e-11
7.46275406861e-05
3.72383884585e-11
7.46274097314e-05
4.49749412381e-11
7.46273160418e-05
5.35828211488e-11
7.46272533054e-05
6.31991513956e-11
7.46272081e-05
7.30240611805e-11
7.46271772055e-05
8.33705241111e-11
7.46271564822e-05
9.49981284842e-11
7.46271428133e-05
1.0795538634e-10
7.46271337244e-05
1.22086114288e-10
7.46271274535e-05
1.37384794814e-10
7.46271227603e-05
1.53767894163e-10
7.46271187634e-05
1.71016543067e-10
7.46271148272e-05
1.88763027172e-10
7.46271104539e-05
2.06446413829e-10
7.46271052681e-05
2.23301541516e-10
7.4627099034e-05
2.38259425391e-10
7.46270914566e-05
2.49676246142e-10
7.46270820946e-05
2.55312207771e-10
7.46270702573e-05
2.52249178503e-10
7.46270548526e-05
2.36845679267e-10
7.46270342478e-05
2.04837989502e-10
7.46270069713e-05
1.51736396374e-10
7.46269634476e-05
7.00583331933e-11
7.46268693497e-05
-9.0028746508e-11
7.462672928e-05
-3.93280207787e-10
7.46264979443e-05
-7.98324433853e-10
7.46261157575e-05
-1.36379570011e-09
7.46254844598e-05
-2.13958065457e-09
7.4624444487e-05
-3.19680916172e-09
7.462273445e-05
-4.62595878056e-09
7.46199327043e-05
-6.54957408106e-09
7.46153716934e-05
-9.14658676199e-09
7.46079635892e-05
-1.26059956125e-08
7.45959355142e-05
-1.71348797939e-08
7.45764463533e-05
-2.30120928103e-08
7.45450812046e-05
-3.07444827774e-08
7.4494919817e-05
-4.08134766567e-08
7.44150503187e-05
-5.34035672654e-08
7.42887883131e-05
-6.86719697022e-08
7.40912853575e-05
-8.63522675275e-08
7.37869727182e-05
-1.05263738789e-07
7.33280128898e-05
-1.22613787004e-07
7.26561550432e-05
-1.33196377203e-07
7.17108136906e-05
-1.29791595942e-07
-1.03814354797e-07
7.04470490925e-05
5.07871714417e-05
-7.87116897892e-07
5.2951648699e-05