/*--------------------------------*- C++ -*----------------------------------*\
| =========                 |                                                 |
| \\      /  F ield         | OpenFOAM: The Open Source CFD Toolbox           |
|  \\    /   O peration     | Version:  2106                                  |
|   \\  /    A nd           | Website:  www.openfoam.com                      |
|    \\/     M anipulation  |                                                 |
\*---------------------------------------------------------------------------*/
FoamFile
{
    version     2.0;
    format      ascii;
    arch        "LSB;label=32;scalar=64";
    class       volScalarField;
    location    "0.35";
    object      p;
}
// * * * * * * * * * * * * * * * * * * * * * * * * * * * * * * * * * * * * * //

dimensions      [0 2 -2 0 0 0 0];

internalField   nonuniform List<scalar> 
9600
(
2.26040694886
-0.637601445081
-1.54183614745
-1.9274441971
-2.14677653954
-2.28671928729
-2.39062449298
-2.47817406417
-2.55767342601
-2.63306353298
-2.70643748298
-2.77894602092
-2.85121890555
-2.92358713488
-2.99620722066
-3.06913525385
-3.14237115247
-3.21588660504
-3.28964101437
-3.36359175483
-3.43769794451
-3.51192511459
-3.58624295748
-3.66062699638
-3.73505811269
-3.80952131872
-3.88400494772
-3.958499919
-4.0329993848
-4.10749843081
-4.18199299524
-4.25647964463
-4.33095560642
-4.40541872906
-4.47986696059
-4.55429810975
-4.62871031401
-4.70310163668
-4.77746998153
-4.85181347506
-4.92612994024
-5.00041674243
-5.07467116382
-5.14889038896
-5.22307127222
-5.2972105876
-5.37130486371
-5.44535018457
-5.51934273501
-5.59327812154
-5.66715132238
-5.74095764207
-5.81469199134
-5.88834832585
-5.96192018992
-6.03540070261
-6.10878252156
-6.18205820359
-6.25521992923
-6.32825892874
-6.4011658327
-6.47393060495
-6.54654251834
-6.61899051988
-6.69126295339
-6.76334710924
-6.83522947441
-6.906895939
-6.9783312857
-7.0495192605
-7.12044312325
-7.19108523068
-7.26142645513
-7.3314463996
-7.40112396058
-7.47043710265
-7.53936243227
-7.60787528634
-7.67594976956
-7.74355857833
-7.81067292199
-7.87726273565
-7.94329659153
-8.00874133817
-8.07356216099
-8.1377227863
-8.20118546242
-8.26391065482
-8.3258571753
-8.38698220851
-8.44724083346
-8.50658619459
-8.56496983625
-8.62234169863
-8.6786498624
-8.73384010403
-8.78785600802
-8.84063926747
-8.89212969936
-8.94226549121
-8.99098283942
-9.03821552967
-9.0838953347
-9.12795214387
-9.17031374909
-9.21090585965
-9.24965265886
-9.28647624314
-9.32129685793
-9.35403344911
-9.3846027602
-9.41291957883
-9.43889711204
-9.46244700736
-9.48347939173
-9.50190266681
-9.51762482315
-9.53055212776
-9.54058854792
-9.54763773158
-9.55160378255
-9.55238893233
-9.54989239908
-9.54401566461
-9.53465960099
-9.52172312937
-9.50510537051
-9.48470434162
-9.46041756027
-9.43214346157
-9.39977994916
-9.36322321801
-9.32236960741
-9.27711630146
-9.22735807623
-9.17298854977
-9.11390051281
-9.04998322692
-8.98112395186
-8.90720610871
-8.82810662181
-8.74369512733
-8.65383186867
-8.55836506776
-8.45712596157
-8.34992439718
-8.23654220905
-8.11672320598
-7.99016169261
-7.85648257192
-7.71521166201
-7.56573516459
-7.40722759487
-7.23852018333
-7.05788868437
-6.8627425637
-6.64913518584
-6.41124028815
-6.14970489764
-5.92547592881
0.348864711988
-0.833485652304
-1.44216409331
-1.79618629487
-2.03880344025
-2.20936661467
-2.33743844374
-2.4419410026
-2.53301664205
-2.61629503939
-2.69506802784
-2.77128500472
-2.84610534092
-2.92021742403
-2.99402315909
-3.067749507
-3.14151614048
-3.21537890498
-3.28935596692
-3.36344580694
-3.43763681082
-3.51191237504
-3.58625614705
-3.66065247616
-3.7350876662
-3.809550307
-3.8840311774
-3.95852271163
-4.03301866272
-4.10751443475
-4.18200629165
-4.25649089637
-4.33096526744
-4.40542709865
-4.47987447033
-4.5543051573
-4.62871716325
-4.70310858557
-4.77747721615
-4.85182107636
-4.92613808733
-5.00042561658
-5.07468085364
-5.14890088308
-5.22308260804
-5.29722283335
-5.37131818973
-5.44536464521
-5.51935826113
-5.5932949584
-5.6671696989
-5.74097752874
-5.81471340344
-5.88837135812
-5.96194491608
-6.03542730095
-6.1088112203
-6.18208913364
-6.25525323711
-6.32829476688
-6.4012042851
-6.47397184099
-6.54658673458
-6.61903788685
-6.69131377333
-6.76340172891
-6.83528796931
-6.9069582975
-6.97839783919
-7.0495904831
-7.120519249
-7.19116636802
-7.26151284583
-7.33153835816
-7.40122177773
-7.47054115785
-7.53947316107
-7.60799299987
-7.67607468184
-7.74369101787
-7.81081333446
-7.87741153824
-7.94345421944
-8.00890828453
-8.07373881815
-8.13790937383
-8.20138231622
-8.2641183799
-8.32607634487
-8.38721321716
-8.44748403328
-8.50684204424
-8.5652389443
-8.622624691
-8.67894726467
-8.73415231502
-8.78818341444
-8.8409824574
-8.89248932151
-8.94264206052
-8.99137687715
-9.03862768264
-9.08432615136
-9.12840205715
-9.1707832339
-9.21139533568
-9.25016265016
-9.28700747586
-9.32184979819
-9.35460840947
-9.38520018456
-9.41353975828
-9.43954033552
-9.46311354939
-9.48416982944
-9.50261735896
-9.51836379092
-9.5313158902
-9.5413780234
-9.54845311857
-9.55244485612
-9.55325679157
-9.55078800168
-9.54493874605
-9.53561083866
-9.52270144799
-9.50611069419
-9.48573838122
-9.46148171755
-9.43323922058
-9.40091004174
-9.36439148845
-9.32358013978
-9.27837430459
-9.22867056684
-9.17436394566
-9.11534975866
-9.05152019012
-8.98276553206
-8.90897349766
-8.83002627888
-8.74580001999
-8.65616314866
-8.56097500173
-8.4600814706
-8.35331068672
-8.24046843883
-8.12133020504
-7.99563433442
-7.86307009178
-7.7232568128
-7.57572405895
-7.41988664215
-7.25500204515
-7.08013802015
-6.89422978915
-6.69628084105
-6.48515075019
-6.26079253584
-6.04432828309
-0.626978475666
-1.10834105648
-1.49960383061
-1.79121843798
-2.01279246201
-2.18072828396
-2.31283006705
-2.42261850191
-2.51847718478
-2.60562172915
-2.68736390974
-2.76579833499
-2.84224529541
-2.9175346288
-2.99218235847
-3.06650395421
-3.14068648756
-3.21483637399
-3.28900912646
-3.36323032144
-3.43750785655
-3.51183938427
-3.58621833204
-3.66063615369
-3.73508392587
-3.80955335543
-3.8840374223
-3.95853024464
-4.03302651506
-4.10752196478
-4.18201313699
-4.25649703901
-4.33097083645
-4.40543209097
-4.47987892333
-4.55430923771
-4.62872098486
-4.70311236532
-4.77748117593
-4.85182519471
-4.92614231489
-5.0004299767
-5.07468536043
-5.14890561948
-5.22308763666
-5.29722818209
-5.37132408184
-5.4453712454
-5.51936541864
-5.59330267089
-5.6671781668
-5.74098675793
-5.8147233136
-5.88838193269
-5.96195611721
-6.03543923943
-6.10882414295
-6.18210315015
-6.25526833579
-6.32831095802
-6.40122153776
-6.47399023094
-6.54660649548
-6.61905916646
-6.69133665308
-6.76342640562
-6.83531455125
-6.90698664733
-6.97842794158
-7.04962263397
-7.12055365672
-7.19120301428
-7.26155175471
-7.33157972532
-7.40126580161
-7.47058799545
-7.53952300254
-7.60804599341
-7.67613087621
-7.74375051047
-7.81087638468
-7.87747842208
-7.94352511512
-8.00898337058
-8.07381829981
-8.13799333936
-8.20147079789
-8.26421158881
-8.32617456846
-8.38731662825
-8.44759276338
-8.50695633057
-8.56535914832
-8.62275112126
-8.67908007981
-8.73429159291
-8.78832925671
-8.84113515414
-8.89264931051
-8.94280957899
-8.99155191159
-9.03881032274
-9.08451652369
-9.12860022853
-9.17098936583
-9.21160961334
-9.2503852237
-9.28723872194
-9.32209003698
-9.35485772649
-9.38545880895
-9.41380856376
-9.43981977368
-9.46340377712
-9.48447132601
-9.50293087681
-9.51868947783
-9.53165381155
-9.54172921241
-9.54881865099
-9.55282453527
-9.55365119244
-9.55119881965
-9.54536660849
-9.53605712539
-9.52316953959
-9.5066025696
-9.48625636181
-9.46202897897
-9.4338184832
-9.40152440254
-9.36504567238
-9.32427953736
-9.27912486327
-9.2294801109
-9.17524179047
-9.11630731556
-9.05257212553
-8.98392970821
-8.91027189341
-8.83148636763
-8.74745624768
-8.65805819396
-8.56316190928
-8.46262748348
-8.35630092699
-8.24401199138
-8.12556821305
-8.00074948046
-7.86930443627
-7.73093890865
-7.58530660217
-7.43201025956
-7.27060344226
-7.10061645707
-6.92167343548
-6.73376909044
-6.53737153375
-6.33350298409
-6.13042822066
-1.17843935911
-1.36477971436
-1.60723053573
-1.82969759938
-2.01688858645
-2.1709162692
-2.29935369293
-2.40964403996
-2.50743861067
-2.59679853794
-2.68056962199
-2.76069630908
-2.83848595862
-2.91480793497
-2.99023254496
-3.06512838206
-3.1397290077
-3.21417922128
-3.28856510416
-3.36293555422
-3.43731609583
-3.51171760678
-3.58614358835
-3.66059199884
-3.73505945057
-3.80954124618
-3.88403274874
-3.95852989646
-4.03302867343
-4.10752542078
-4.18201700896
-4.2565008255
-4.33097441182
-4.40543538537
-4.47988186914
-4.55431192538
-4.62872347996
-4.70311476699
-4.77748371244
-4.85182791543
-4.92614513226
-5.0004328783
-5.07468833633
-5.14890872507
-5.22309097923
-5.29723175302
-5.37132791005
-5.44537555881
-5.51937018498
-5.59330768769
-5.66718351238
-5.74099245041
-5.81472931266
-5.88838830882
-5.96196289894
-6.035446487
-6.10883202165
-6.18211173524
-6.25527755777
-6.32832079607
-6.40123197225
-6.4740013257
-6.546618549
-6.61907238225
-6.69135091675
-6.76344163283
-6.83533086501
-6.90700406431
-6.97844641972
-7.04964229335
-7.12057464041
-7.19122532901
-7.26157539706
-7.33160484352
-7.40129257704
-7.47061650471
-7.5395532902
-7.60807812631
-7.67616490004
-7.74378649013
-7.81091451298
-7.87751893779
-7.9435681026
-8.00902880776
-8.07386627128
-8.13804401244
-8.20152425048
-8.26426785726
-8.32623372766
-8.38737880847
-8.44765818256
-8.50702524457
-8.56543177601
-8.62282755791
-8.67916037102
-8.7343758994
-8.78841777391
-8.84122807152
-8.89274695538
-8.94291229913
-8.99165989475
-9.038923554
-9.08463504788
-9.1287241836
-9.17111915982
-9.21174570362
-9.25052770306
-9.28738774065
-9.3222460447
-9.35502096902
-9.38562921723
-9.41398604385
-9.44000461413
-9.46359608016
-9.48467116638
-9.50313889043
-9.51890615313
-9.53187905299
-9.54196345525
-9.54906302433
-9.55307930901
-9.55391638261
-9.55147601127
-9.54565689762
-9.53636109191
-9.52348880798
-9.5069385188
-9.48661089088
-9.46240557107
-9.43422062644
-9.40195565363
-9.36551117395
-9.32478580338
-9.27967919812
-9.23009176038
-9.17592199221
-9.11706955811
-9.05343331686
-8.98491017834
-8.91139644348
-8.83278585187
-8.74896915348
-8.65983235164
-8.56525619454
-8.46511546423
-8.35927474321
-8.24758821271
-8.12989664315
-8.00602165604
-7.87576853243
-7.73892374848
-7.59525082498
-7.44450385891
-7.28644855919
-7.12089715221
-6.94779522332
-6.76738869732
-6.58027433956
-6.38728667016
-6.19152608698
-1.51578471518
-1.56754254564
-1.71144029395
-1.87573298025
-2.03006605961
-2.16812359234
-2.29027739108
-2.39906553734
-2.49750959626
-2.58833962798
-2.67374726534
-2.75538536667
-2.83445528725
-2.91180902353
-2.9880383548
-3.06354688298
-3.13860510396
-3.21339153799
-3.28802101847
-3.36256553051
-3.43706874907
-3.51155563007
-3.58603987391
-3.66052726722
-3.73502052629
-3.80951922245
-3.88402150113
-3.95852524793
-4.03302797321
-4.10752698958
-4.18201969589
-4.25650385513
-4.33097743131
-4.40543827558
-4.47988455231
-4.55431449462
-4.62872601237
-4.70311722658
-4.77748621595
-4.851830546
-4.92614785054
-5.00043570046
-5.07469125542
-5.14891178361
-5.2230943504
-5.29723548308
-5.37133194368
-5.44538008395
-5.51937531645
-5.59331325872
-5.66718945856
-5.74099878471
-5.81473601014
-5.88839545619
-5.96197065738
-6.03545487853
-6.10884106983
-6.18212145044
-6.25528788715
-6.32833180298
-6.40124380639
-6.47401403024
-6.54663221766
-6.61908717588
-6.69136683979
-6.76345860344
-6.83534899619
-6.90702356147
-6.97846729412
-7.04966453233
-7.12059834634
-7.19125058773
-7.26160227355
-7.33163348435
-7.40132314921
-7.47064905278
-7.53958781493
-7.60811472236
-7.67620371102
-7.74382762846
-7.81095812387
-7.87756522656
-7.94361716381
-8.00908058211
-8.07392080081
-8.13810156006
-8.20158505126
-8.26433200419
-8.32630124893
-8.3874497734
-8.44773282059
-8.5071038422
-8.56551451528
-8.62291445089
-8.67925138643
-8.73447121086
-8.78851765438
-8.84133263629
-8.89285623
-8.9430263348
-8.99177871585
-9.03904716315
-9.08476343096
-9.12885735072
-9.17125737003
-9.21188944124
-9.25067704902
-9.28754248946
-9.32240639033
-9.35518738651
-9.38580191429
-9.41416499941
-9.44019008438
-9.46378840614
-9.48487044239
-9.50334552842
-9.51912084118
-9.53210201153
-9.54219480016
-9.54930380433
-9.55333038147
-9.55417758327
-9.55174878874
-9.54594295775
-9.53666127225
-9.52380505672
-9.5072729102
-9.4869653351
-9.46278333549
-9.43462576548
-9.40239214756
-9.36598416685
-9.32530233414
-9.28024736332
-9.23072139392
-9.17662525696
-9.11786107471
-9.05433138313
-8.98593699789
-8.91257878441
-8.83415648847
-8.75056859003
-8.66171117743
-8.56747649271
-8.46775390702
-8.36242682954
-8.25137290618
-8.13446459965
-8.01156342146
-7.88252508404
-7.74720469529
-7.60545450444
-7.45713969937
-7.30216540419
-7.14050288824
-6.97223711293
-6.79763703967
-6.61711002302
-6.43097656928
-6.23989866679
-1.71985859339
-1.71487562139
-1.79885294878
-1.91964179453
-2.04628498718
-2.1689643934
-2.28386139152
-2.39005745282
-2.4883405181
-2.5801296458
-2.66689046689
-2.74990576027
-2.83020992289
-2.90859645837
-2.98565356365
-3.061805821
-3.1373532285
-3.21250436176
-3.28740136257
-3.3621391731
-3.43677998764
-3.51136345076
-3.58591423148
-3.66044753759
-3.73497133126
-3.80949024928
-3.88400568039
-3.95851764085
-4.03302529151
-4.10752717486
-4.18202145576
-4.25650631062
-4.33098007259
-4.40544090603
-4.47988706622
-4.55431694405
-4.62872849472
-4.70311966133
-4.7774885696
-4.85183289594
-4.92615022583
-5.00043818146
-5.07469387368
-5.14891447839
-5.22309723248
-5.29723869452
-5.37133536248
-5.44538370434
-5.51937928591
-5.59331754257
-5.66719402876
-5.74100365605
-5.81474110352
-5.88840087381
-5.96197657
-6.03546128951
-6.10884793143
-6.1821287809
-6.25529564888
-6.32834005118
-6.40125275512
-6.4740237632
-6.54664269367
-6.61909844443
-6.69137892529
-6.76347139359
-6.8353625054
-6.90703802573
-6.97848286991
-7.04968121067
-7.12061611282
-7.19126947836
-7.26162235966
-7.33165489759
-7.40134603473
-7.47067343548
-7.53961364052
-7.60814202711
-7.67623263248
-7.74385826927
-7.81099051727
-7.8775994535
-7.94365334832
-8.00911876219
-8.07396098597
-8.13814390032
-8.20162975113
-8.26437918706
-8.32635096956
-8.3875020883
-8.4477879028
-8.50716192081
-8.56557577649
-8.62297900309
-8.67931927046
-8.73454259596
-8.78859285043
-8.84141182447
-8.8929393651
-8.94311340357
-8.99186978778
-9.03914244448
-9.08486319801
-9.12896173536
-9.17136647961
-9.21200374324
-9.25079689933
-9.28766774271
-9.32253695525
-9.35532364376
-9.38594425891
-9.41431332954
-9.4403443359
-9.46394901244
-9.48503772964
-9.50351971231
-9.51930257638
-9.53229180589
-9.54239273276
-9.5495108149
-9.55354774401
-9.55440556536
-9.55198817603
-9.54619582168
-9.53692863769
-9.52408870706
-9.50757559314
-9.48728912318
-9.46313113788
-9.4350020304
-9.40280163942
-9.36643227648
-9.32579627707
-9.28079572081
-9.23133441657
-9.17731559756
-9.11864361511
-9.05522458932
-8.98696382642
-8.91376678834
-8.83553883684
-8.75218567761
-8.66361317982
-8.56972486926
-8.47042372637
-8.36561094711
-8.25518517779
-8.13904639313
-8.0170914897
-7.88921741948
-7.7553319973
-7.61535321136
-7.46922004499
-7.31691793842
-7.15849443313
-6.99407674315
-6.82388850925
-6.64816916434
-6.46696062695
-6.28011679477
-1.84298702911
-1.81752713427
-1.86688794542
-1.95704721845
-2.06197236925
-2.17129429374
-2.2791313989
-2.38235507646
-2.48002889665
-2.57241938468
-2.66029060526
-2.74453452229
-2.82598995333
-2.90536772425
-2.98323512553
-3.06002673174
-3.13606553612
-3.21158637749
-3.28675653568
-3.36169292708
-3.43647586549
-3.51115965236
-3.58578037864
-3.6603617248
-3.73491784127
-3.80945827341
-3.88398773321
-3.95850852157
-4.03302148796
-4.10752647029
-4.18202251744
-4.2565082761
-4.33098238802
-4.40544332128
-4.47988944631
-4.55431924028
-4.62873078192
-4.7031218794
-4.77749064016
-4.85183489183
-4.92615219473
-5.00044024014
-5.07469613915
-5.14891686207
-5.22309967914
-5.29724136352
-5.37133826799
-5.44538676052
-5.5193825987
-5.59332115079
-5.66719793975
-5.74100794096
-5.81474573251
-5.88840583253
-5.96198193023
-6.03546703266
-6.10885399673
-6.18213524186
-6.25530257476
-6.32834745112
-6.4012607378
-6.47403240723
-6.54665192543
-6.61910823353
-6.69138936343
-6.76348254228
-6.83537439649
-6.90705078645
-6.97849663134
-7.04969599986
-7.12063191737
-7.19128631458
-7.26164027596
-7.33167397176
-7.40136636173
-7.47069506504
-7.53963658598
-7.60816634957
-7.67625843748
-7.74388561143
-7.81101935937
-7.87762978329
-7.94368529395
-8.00915251685
-8.07399668051
-8.13818162052
-8.20166954754
-8.2644211038
-8.32639510662
-8.38754853296
-8.44783673614
-8.50721322762
-8.56562966881
-8.6230356795
-8.67937886325
-8.73460512424
-8.78865835571
-8.84148036314
-8.89301096016
-8.94318802436
-8.99194735244
-9.03922303512
-9.08494725273
-9.129049632
-9.17145811294
-9.21209907431
-9.25089638897
-9.28777168956
-9.32264525686
-9.35543631181
-9.38606167134
-9.41443570118
-9.44047158361
-9.46408145732
-9.48517582967
-9.50366367811
-9.51945296348
-9.53244922268
-9.54255745708
-9.54968337885
-9.55372969519
-9.55459763727
-9.55219088547
-9.5464110506
-9.53715778517
-9.52433326624
-9.50783839778
-9.48757277054
-9.46343833057
-9.43533698722
-9.40316965682
-9.3668391603
-9.32624910938
-9.2813030641
-9.23190659347
-9.17796557394
-9.1193865278
-9.05607839826
-8.98795088819
-8.91491425419
-8.83687944057
-8.75375883065
-8.66546681116
-8.5719173707
-8.47302596526
-8.3687098838
-8.25888613662
-8.14347706526
-8.02240926607
-7.89561244955
-7.76303214727
-7.62463324852
-7.48040288705
-7.33036999721
-7.17461644569
-7.01327571782
-6.84653247207
-6.67455101017
-6.49733981687
-6.31471977361
-1.91702843594
-1.88597600628
-1.91590760966
-1.98567943897
-2.07484819425
-2.17372472095
-2.27560422161
-2.37607669607
-2.47300316594
-2.56574946942
-2.65448645747
-2.73975261177
-2.82219772559
-2.90244528221
-2.98103374322
-3.05839997394
-3.13488369716
-3.21074117721
-3.28616108604
-3.36127964459
-3.4361933804
-3.51096977772
-3.58565527294
-3.66028142672
-3.7348675878
-3.8094280398
-3.8839705159
-3.95849953494
-4.03301750952
-4.10752543319
-4.18202317217
-4.25650985501
-4.33098438267
-4.40544548018
-4.4798916217
-4.55432130596
-4.62873275196
-4.70312374352
-4.77749235196
-4.85183655185
-4.92615384485
-5.00044188952
-5.07469793749
-5.14891882953
-5.22310167194
-5.29724342192
-5.37134050879
-5.44538917709
-5.51938523727
-5.593324008
-5.66720098936
-5.74101132719
-5.81474949379
-5.88840986977
-5.96198620817
-6.03547152248
-6.10885863972
-6.18214017797
-6.25530801552
-6.32835339538
-6.40126710405
-6.47403919928
-6.54665912673
-6.61911581019
-6.69139739685
-6.76349117029
-6.83538368843
-6.90706077751
-6.97850736463
-7.04970750704
-7.12064423019
-7.19129945657
-7.26165425147
-7.33168879402
-7.40138209778
-7.47071179893
-7.53965436318
-7.60818521036
-7.6762784449
-7.74390679338
-7.81104164851
-7.87765310155
-7.94370971996
-8.00917827782
-8.07402397468
-8.13821055242
-8.20170011453
-8.26445325173
-8.32642890696
-8.38758411357
-8.44787418799
-8.5072526347
-8.5656711321
-8.62307941579
-8.67942507308
-8.73465381314
-8.78870944166
-8.84153374939
-8.89306665881
-8.94324619131
-8.99200802382
-9.03928612794
-9.08501304044
-9.12911867815
-9.17153047938
-9.2121743633
-9.25097467387
-9.28785350261
-9.32273082437
-9.35552540897
-9.3861542953
-9.41453223568
-9.44057223463
-9.46418645752
-9.48528554322
-9.50377829486
-9.51957288642
-9.53257527906
-9.54269006819
-9.54982279924
-9.55387714111
-9.55475436059
-9.55235735454
-9.5465889724
-9.53734895339
-9.52453887464
-9.50806100629
-9.48781550285
-9.46370411956
-9.43562971571
-9.40349457356
-9.36720230056
-9.32665747249
-9.28176507983
-9.2324322739
-9.17856758436
-9.12008017828
-9.05688131978
-8.98888441477
-8.91600439032
-8.83815769722
-8.75526310367
-8.66724230138
-8.57401864243
-8.47551880221
-8.37167405245
-8.26241759137
-8.14768941287
-8.0274402516
-7.90162691871
-7.77022161624
-7.63322249416
-7.49065049997
-7.34256196651
-7.18905956548
-7.03028444308
-6.86641568615
-6.69762394278
-6.5240109051
-6.34561596212
-1.95926085846
-1.92769491367
-1.94734078446
-2.00478588904
-2.08379986503
-2.17557844717
-2.27319631426
-2.37158420167
-2.46786552591
-2.56079925113
-2.65013166608
-2.7361353295
-2.81931112943
-2.90021012444
-2.97934395221
-3.0571477516
-3.13397189857
-3.21008789823
-3.28570009902
-3.3609591714
-3.43597398464
-3.51082209601
-3.58555768589
-3.66021762801
-3.73482822816
-3.80940434853
-3.88395687022
-3.95849230303
-4.03301426681
-4.10752456757
-4.18202365415
-4.25651106342
-4.33098594203
-4.40544721184
-4.47989340827
-4.55432298285
-4.62873427444
-4.70312513213
-4.77749359094
-4.85183778046
-4.92615515782
-5.00044319343
-5.07469925248
-5.14892025563
-5.22310316006
-5.2972449244
-5.37134209262
-5.44539091231
-5.51938722721
-5.59332625003
-5.66720338313
-5.74101394236
-5.81475241869
-5.88841298553
-5.9619894532
-6.03547491436
-6.1088621533
-6.18214387958
-6.2553121277
-6.32835797186
-6.40127196584
-6.47404423267
-6.54666437534
-6.61912136493
-6.69140335603
-6.7634976385
-6.83539072942
-6.90706838453
-6.97851549378
-7.04971614396
-7.12065343858
-7.1913093048
-7.26166471753
-7.33169983104
-7.40139376976
-7.47072425866
-7.53966769282
-7.60819937321
-7.676293381
-7.74392249328
-7.81105813764
-7.87767040711
-7.9437278929
-8.00919742564
-8.07404421634
-8.13823198618
-8.20172276589
-8.2644770114
-8.32645373654
-8.38761013277
-8.44790154346
-8.50728148775
-8.56570159923
-8.6231115895
-8.67945900049
-8.73468946628
-8.78874682317
-8.84157278536
-8.89310722966
-8.94328843104
-8.99205219671
-9.03933222145
-9.08506093092
-9.12916868507
-9.171582984
-9.21222919033
-9.25103160402
-9.28791282311
-9.32279299545
-9.35559041157
-9.3862218784
-9.41460269801
-9.44064604404
-9.46426380532
-9.48536668119
-9.50386332048
-9.51966211914
-9.53266970334
-9.5427903233
-9.5499289905
-9.55399013389
-9.55487553384
-9.55248734087
-9.54672914838
-9.53750137933
-9.52470491091
-9.50824283116
-9.48801634517
-9.46392736843
-9.43587924823
-9.40377526283
-9.36752003732
-9.32701923781
-9.28217941183
-9.23290907603
-9.17911874601
-9.12072053529
-9.05762828651
-8.98975861682
-8.91703073278
-8.83936603497
-8.75668936713
-8.66892924143
-8.57601739343
-8.47789039517
-8.37449139521
-8.26576831701
-8.15167565032
-8.03218284736
-7.90727035162
-7.7769318774
-7.64119008838
-7.50009317621
-7.35372119986
-7.202198319
-7.045686779
-6.88439125748
-6.71853818749
-6.54836373267
-6.37414856063
-1.97850888434
-1.94741095277
-1.9626358004
-2.01430250207
-2.08836066617
-2.17656221055
-2.27196635898
-2.36923536518
-2.46514714703
-2.55815761142
-2.64779287765
-2.73418325026
-2.81774759192
-2.89899600043
-2.97842413887
-3.05646506512
-3.13347417002
-3.20973091375
-3.28544796541
-3.36078372765
-3.43585375057
-3.51074110389
-3.58550432528
-3.66018361942
-3.7348067736
-3.809391302
-3.88394927457
-3.95848824895
-4.03301251357
-4.10752423588
-4.18202409615
-4.25651185346
-4.3309868718
-4.40544824582
-4.47989455325
-4.55432410974
-4.62873529515
-4.7031260761
-4.77749441069
-4.85183853076
-4.92615600281
-5.00044407574
-5.07470007427
-5.148921075
-5.22310405752
-5.29724592032
-5.37134318373
-5.44539206605
-5.51938851712
-5.59332777429
-5.66720505004
-5.74101573847
-5.81475443
-5.88841511345
-5.96199157487
-6.03547713176
-6.10886456007
-6.1821464535
-6.25531489283
-6.32836098212
-6.40127515034
-6.47404750723
-6.54666779248
-6.61912505571
-6.6914073998
-6.76350202757
-6.83539545036
-6.90707345337
-6.97852088647
-7.04972180462
-7.12065941018
-7.19131570138
-7.26167155169
-7.33170700936
-7.40140129967
-7.47073229573
-7.53967634549
-7.60820858497
-7.67630303609
-7.7439325604
-7.81106869517
-7.87768156684
-7.94373970351
-8.00920987113
-8.07405727237
-8.13824568819
-8.20173719654
-8.26449213134
-8.32646945252
-8.38762650177
-8.44791870439
-8.50729960075
-8.56572078794
-8.62313191611
-8.67948048285
-8.734711967
-8.78877030226
-8.84159735149
-8.89313279858
-8.94331490826
-8.99207983236
-9.03936125779
-9.08509118261
-9.12919995601
-9.17161558086
-9.21226335829
-9.25106723519
-9.28794986651
-9.32283172431
-9.35563107268
-9.38626436248
-9.41464719939
-9.44069298953
-9.46431331651
-9.48541903216
-9.50391867956
-9.51972069239
-9.53273226298
-9.54285773196
-9.55000135673
-9.55406806449
-9.5549606439
-9.5525804027
-9.54683104547
-9.53761428549
-9.52483062907
-9.50838337724
-9.48817476203
-9.46410716082
-9.43608439218
-9.40401046349
-9.36779108061
-9.32733302404
-9.28254438315
-9.23333520438
-9.17961752191
-9.12130620404
-9.05831791898
-8.99057224471
-8.9179925506
-8.84050475369
-8.7580392433
-8.67053117472
-8.57791987562
-8.48015076669
-8.37717710983
-8.26896058167
-8.15546954634
-8.03668781635
-7.91261653181
-7.78326988251
-7.64869079978
-7.50895295727
-7.36416148663
-7.21446706012
-7.06006529503
-6.90120545161
-6.73818831223
-6.57137806159
-6.4012434749
-1.97850867539
-1.94741076416
-1.96263593967
-2.01430256152
-2.08836046439
-2.17656224934
-2.27196634148
-2.36923529397
-2.46514716865
-2.55815761059
-2.64779294267
-2.73418342978
-2.81774773467
-2.89899605322
-2.97842420877
-3.05646523874
-3.13347436782
-3.20973106838
-3.28544805489
-3.36078374314
-3.43585370856
-3.51074102794
-3.58550428418
-3.66018361902
-3.7348067779
-3.80939129377
-3.88394926019
-3.95848828856
-4.03301268064
-4.10752453865
-4.18202444948
-4.25651215583
-4.33098707904
-4.40544843795
-4.47989486581
-4.55432450761
-4.62873568561
-4.70312650725
-4.77749483504
-4.85183885863
-4.92615633673
-5.00044446033
-5.07470042178
-5.14892136087
-5.22310435837
-5.29724636061
-5.37134380473
-5.44539272645
-5.51938914818
-5.59332850491
-5.6672059092
-5.74101668333
-5.81475552978
-5.88841629915
-5.96199266545
-6.03547819252
-6.10886582227
-6.1821479137
-6.25531637604
-6.32836239668
-6.40127654207
-6.47404896928
-6.54666943553
-6.61912696191
-6.69140953743
-6.76350428069
-6.83539773103
-6.90707581297
-6.97852343607
-7.04972453055
-7.12066224613
-7.19131869434
-7.26167475939
-7.33171039208
-7.401404821
-7.47073602945
-7.53968036101
-7.60821282796
-7.67630742673
-7.74393710578
-7.81107345162
-7.87768658677
-7.94374502548
-8.00921549003
-8.07406310499
-8.1382516273
-8.20174328155
-8.26449844212
-8.3264759736
-8.38763330061
-8.44792590633
-8.50730724301
-8.5657288161
-8.62314033787
-8.67948942776
-8.73472134561
-8.78877993965
-8.8416073769
-8.89314332927
-8.943325739
-8.99209089863
-9.03937286762
-9.08510339942
-9.12921248557
-9.17162842119
-9.21227681389
-9.25108142597
-9.28796468838
-9.32284720366
-9.35564751138
-9.38628183817
-9.41466575564
-9.44071290782
-9.46433476477
-9.48544228339
-9.50394417479
-9.51974853489
-9.53276293006
-9.54289211238
-9.55003975358
-9.55411078084
-9.55500923713
-9.55263608208
-9.54689442074
-9.53768726106
-9.52491541363
-9.50848217336
-9.48829048791
-9.46424315537
-9.43624461774
-9.40419962662
-9.36801501999
-9.32759870048
-9.28285993444
-9.23371046789
-9.18006404964
-9.12183803334
-9.05895185984
-8.99132789292
-8.91889375559
-8.841579883
-8.7593215294
-8.6720602259
-8.57974277735
-8.48232325353
-8.37976362496
-8.27203780201
-8.15912893316
-8.04103363691
-7.91777125599
-7.7893770729
-7.65591331804
-7.51747855679
-7.37420585286
-7.22627638578
-7.07392571089
-6.91745365375
-6.75723207589
-6.59372522788
-6.42752411585
-1.95926031161
-1.92769442735
-1.94734103266
-2.00478603406
-2.08379935258
-2.17557857269
-2.27319628372
-2.37158406362
-2.46786560948
-2.56079925375
-2.65013187259
-2.73613582558
-2.81931149226
-2.90021024168
-2.9793440994
-3.0571481729
-3.13397244998
-3.21008840061
-3.28570040447
-3.36095922576
-3.43597385009
-3.51082187982
-3.58555757924
-3.66021763457
-3.73482824525
-3.80940434284
-3.88395690103
-3.95849254275
-4.03301482945
-4.10752538837
-4.18202454255
-4.25651184272
-4.33098654892
-4.40544783782
-4.47989440044
-4.55432423258
-4.62873547951
-4.70312638824
-4.77749482253
-4.85183880655
-4.92615621374
-5.00044433083
-5.07470028976
-5.1489212153
-5.22310421475
-5.29724629793
-5.37134390508
-5.44539286201
-5.51938911391
-5.59332839303
-5.66720587563
-5.74101671127
-5.81475564795
-5.88841651493
-5.96199282151
-6.03547821478
-6.10886588506
-6.18214811642
-6.25531652809
-6.32836230833
-6.40127626023
-6.47404870384
-6.54666933234
-6.61912702421
-6.69140968793
-6.76350436866
-6.83539760599
-6.90707550044
-6.97852314022
-7.04972434715
-7.1206620438
-7.19131837326
-7.26167438646
-7.33171000037
-7.40140434011
-7.47073542356
-7.53967964164
-7.60821196622
-7.67630641399
-7.74393604306
-7.81107240728
-7.87768547551
-7.94374376841
-8.00921412489
-8.07406163364
-8.1382499158
-8.20174126846
-8.26449621508
-8.32647353546
-8.38763064038
-8.44792309756
-8.50730433673
-8.56572570493
-8.62313685231
-8.67948568776
-8.73471748845
-8.78877578415
-8.84160283798
-8.89313859185
-8.94332079749
-8.99208549692
-9.03936698625
-9.08509727725
-9.12920605859
-9.17162158665
-9.21226970186
-9.25107419935
-9.28795733468
-9.32283962002
-9.35563990303
-9.38627440533
-9.41465841876
-9.44070584955
-9.46432819459
-9.48543644934
-9.50393965159
-9.51974544593
-9.53276134199
-9.54289295311
-9.55004382999
-9.55411821901
-9.55502113685
-9.55265402036
-9.54691916798
-9.53772045666
-9.52495935622
-9.50853901932
-9.48836302559
-9.46433480555
-9.43635952583
-9.40434255138
-9.36819165759
-9.32781611379
-9.28312632425
-9.23403561259
-9.18045958944
-9.12231793019
-9.05953296608
-8.99202992603
-8.91974050233
-8.84259990137
-8.76054795601
-8.67353208553
-8.58150669051
-8.4844349663
-8.38228764417
-8.27504930898
-8.16271823931
-8.04530470032
-7.92284412603
-7.79539328091
-7.66303504067
-7.52589217625
-7.38412771277
-7.23795433513
-7.08764685469
-6.93355216195
-6.77609914421
-6.61581852484
-6.45336619301
-1.91702774442
-1.88597560941
-1.91590769593
-1.98567961023
-2.07484754358
-2.17372491127
-2.27560424037
-2.37607665828
-2.47300338706
-2.56574957463
-2.65448685662
-2.73975329005
-2.82219814992
-2.90244538789
-2.98103385546
-3.05840044984
-3.13488451515
-3.21074209453
-3.286161725
-3.36127982215
-3.4361931935
-3.51096943321
-3.58565507608
-3.66028144543
-3.73486767957
-3.80942815566
-3.88397078802
-3.95850020029
-4.03301857007
-4.10752662456
-4.18202427429
-4.25651085471
-4.33098532425