/*--------------------------------*- C++ -*----------------------------------*\
| =========                 |                                                 |
| \\      /  F ield         | OpenFOAM: The Open Source CFD Toolbox           |
|  \\    /   O peration     | Version:  2106                                  |
|   \\  /    A nd           | Website:  www.openfoam.com                      |
|    \\/     M anipulation  |                                                 |
\*---------------------------------------------------------------------------*/
FoamFile
{
    version     2.0;
    format      ascii;
    arch        "LSB;label=32;scalar=64";
    class       surfaceScalarField;
    location    "0.35";
    object      phi;
}
// * * * * * * * * * * * * * * * * * * * * * * * * * * * * * * * * * * * * * //

dimensions      [0 3 -1 0 0 0 0];

oriented        oriented;

internalField   nonuniform List<scalar> 
18840
(
3.3754304054e-05
1.62456959481e-05
2.25359631953e-05
1.12183414651e-05
1.63023776428e-05
6.23358451727e-06
1.2809825461e-05
3.49255298786e-06
1.08065800528e-05
2.00324508729e-06
9.60476916057e-06
1.20181087116e-06
8.85167853799e-06
7.53090521377e-07
8.36503067264e-06
4.86647786958e-07
8.04518606942e-06
3.19844535008e-07
7.8337419605e-06
2.1144412621e-07
7.69428202308e-06
1.39459944579e-07
7.60308036525e-06
9.12017047782e-08
7.54426549217e-06
5.88149411412e-08
7.50707721677e-06
3.71883233696e-08
7.4841893037e-06
2.28879703389e-08
7.47062377756e-06
1.3565524939e-08
7.4630212451e-06
7.602521724e-09
7.45913844296e-06
3.8827591813e-09
7.45749871871e-06
1.63972458642e-09
7.45714562732e-06
3.53041386481e-10
7.45748297227e-06
-3.374016002e-10
7.4581340682e-06
-6.51133096079e-10
7.45888605215e-06
-7.52047820214e-10
7.45961975376e-06
-7.33695656769e-10
7.4602762351e-06
-6.56446719412e-10
7.46083271002e-06
-5.56479208273e-10
7.46128685466e-06
-4.54216032004e-10
7.46164701555e-06
-3.60217763165e-10
7.4619261889e-06
-2.7915697971e-10
7.46213839031e-06
-2.12203012644e-10
7.46229693828e-06
-1.58577359681e-10
7.462413599e-06
-1.16647023646e-10
7.46249825441e-06
-8.45637423077e-11
7.4625588277e-06
-6.048610293e-11
7.46260152676e-06
-4.26688470965e-11
7.46263122391e-06
-2.96723856454e-11
7.46265156372e-06
-2.0347513672e-11
7.46266525592e-06
-1.37333621924e-11
7.46267436836e-06
-9.13467808709e-12
7.46268032877e-06
-6.02155740035e-12
7.46268411866e-06
-3.91384739559e-12
7.46268653292e-06
-2.5279973397e-12
7.46268805519e-06
-1.60393642728e-12
7.46268894531e-06
-9.48174767142e-13
7.46268951371e-06
-5.85950202713e-13
7.46268990242e-06
-3.78494144422e-13
7.46269015413e-06
-2.32390353971e-13
7.46269037988e-06
-1.6427271261e-13
7.46269056399e-06
-1.97693970118e-13
7.46269067964e-06
-2.01809131628e-13
7.4626908864e-06
-1.81280353833e-13
7.46269119849e-06
-2.19054812e-13
7.46269152911e-06
-2.76968387267e-13
7.46269188469e-06
-3.27368587723e-13
7.46269225698e-06
-3.88939335255e-13
7.46269262756e-06
-4.29880882305e-13
7.4626930528e-06
-4.45102017374e-13
7.46269355497e-06
-4.76621312193e-13
7.46269406918e-06
-5.0604744752e-13
7.46269460043e-06
-5.26058326273e-13
7.46269514286e-06
-5.64653143854e-13
7.46269567258e-06
-6.03364217636e-13
7.46269624647e-06
-6.50732788813e-13
7.462696887e-06
-7.19900627911e-13
7.46269755083e-06
-7.53307961308e-13
7.4626982545e-06
-7.35364579386e-13
7.46269905927e-06
-7.66658782673e-13
7.46269992699e-06
-8.66359740089e-13
7.46270081914e-06
-9.1429608278e-13
7.46270179623e-06
-8.86954086964e-13
7.46270285926e-06
-8.89180877034e-13
7.46270392659e-06
-9.52650640927e-13
7.46270497467e-06
-1.02037254345e-12
7.46270607787e-06
-1.08415619071e-12
7.4627072646e-06
-1.16571793892e-12
7.46270850572e-06
-1.227375092e-12
7.46270981567e-06
-1.24584199885e-12
7.46271122018e-06
-1.26672867506e-12
7.4627126982e-06
-1.32338127657e-12
7.46271420062e-06
-1.38489528694e-12
7.46271572965e-06
-1.43552579408e-12
7.46271730496e-06
-1.50007416162e-12
7.46271890285e-06
-1.55925782678e-12
7.46272052271e-06
-1.57640702286e-12
7.46272220572e-06
-1.58926269576e-12
7.4627239839e-06
-1.66650448086e-12
7.46272582522e-06
-1.76754999137e-12
7.46272772939e-06
-1.80622353992e-12
7.46272972577e-06
-1.80915136121e-12
7.46273176546e-06
-1.84553827456e-12
7.46273381835e-06
-1.93498382128e-12
7.46273591966e-06
-2.04564397782e-12
7.46273812778e-06
-2.12707804251e-12
7.46274046189e-06
-2.17481385019e-12
7.46274285829e-06
-2.22229128302e-12
7.46274528465e-06
-2.31236204728e-12
7.46274776812e-06
-2.45621134773e-12
7.46275033768e-06
-2.59056290331e-12
7.46275308973e-06
-2.70809771693e-12
7.46275607219e-06
-2.88364430348e-12
7.46275927594e-06
-3.1310269409e-12
7.46276272303e-06
-3.394212425e-12
7.46276649045e-06
-3.71194281453e-12
7.46277065361e-06
-4.13350709675e-12
7.46277529637e-06
-4.66952183698e-12
7.46278062435e-06
-5.3805796345e-12
7.46278676885e-06
-6.2524536932e-12
7.46279392149e-06
-7.23115716543e-12
7.46280242179e-06
-8.44551848309e-12
7.46281248419e-06
-1.00074543658e-11
7.46282439281e-06
-1.1912907683e-11
7.46283865775e-06
-1.42995978665e-11
7.46285591067e-06
-1.73113266239e-11
7.46287691169e-06
-2.10740734245e-11
7.46290250628e-06
-2.56464429254e-11
7.46293396328e-06
-3.13411698001e-11
7.46297256555e-06
-3.85281949832e-11
7.46301980744e-06
-4.73187920633e-11
7.46307791736e-06
-5.80286563708e-11
7.46314970169e-06
-7.14944108579e-11
7.46323817851e-06
-8.84156492283e-11
7.46334696179e-06
-1.0906075695e-10
7.46348166274e-06
-1.34641277083e-10
7.46364916117e-06
-1.67394484819e-10
7.46386020875e-06
-2.11282096868e-10
7.46411722547e-06
-2.56934734196e-10
7.46443412846e-06
-3.16734996259e-10
7.46482611557e-06
-3.91939780918e-10
7.465311624e-06
-4.85308366459e-10
7.46591296712e-06
-6.01247606814e-10
7.4666574511e-06
-7.44722860416e-10
7.46757949255e-06
-9.22205582449e-10
7.46872182845e-06
-1.1422660045e-09
7.47013687096e-06
-1.41510575064e-09
7.47189007528e-06
-1.75328116951e-09
7.47406281018e-06
-2.17276798624e-09
7.47675580335e-06
-2.69312060819e-09
7.48009477654e-06
-3.33888609528e-09
7.48423600723e-06
-4.14098897702e-09
7.48937416225e-06
-5.13797240801e-09
7.49575265059e-06
-6.37835338376e-09
7.50367619705e-06
-7.92348229617e-09
7.51352721691e-06
-9.8511395293e-09
7.52578698288e-06
-1.22601849054e-08
7.54106419238e-06
-1.52775942442e-08
7.56013226145e-06
-1.90682264629e-08
7.58398003099e-06
-2.38477891134e-08
7.6138822682e-06
-2.99020944527e-08
7.65149776825e-06
-3.76154617201e-08
7.69901254965e-06
-4.75150596479e-08
7.75935927168e-06
-6.03468513902e-08
7.83657674209e-06
-7.72172591715e-08
7.93647818458e-06
-9.9901560641e-08
8.06812127069e-06
-1.31643281347e-07
8.24759193121e-06
-1.79470432741e-07
8.50871496912e-06
-2.61122993101e-07
8.93482213489e-06
-4.26107625125e-07
9.75963050773e-06
-8.24808582573e-07
1.1700949216e-05
-1.94131891218e-06
-5.25457532042e-06
1.69555237492e-05
5.01388811522e-05
1.61068141514e-05
4.41591302652e-05
1.71980941714e-05
3.7759873429e-05
1.26328399506e-05
3.26495147713e-05
8.60291220783e-06
2.89465821452e-05
5.70617745878e-06
2.6367603115e-05
3.78078978985e-06
2.45938850987e-05
2.52680838601e-06
2.33783981633e-05
1.70213467086e-06
2.25473236368e-05
1.15091901709e-06
2.1981156718e-05
7.77611142216e-07
2.1597804389e-05
5.22812351669e-07
2.13405414611e-05
3.48464686198e-07
2.11699440515e-05
2.29412407531e-07
2.10585363617e-05
1.48596023985e-07
2.09871853516e-05
9.42390577086e-08
2.09426218518e-05
5.81290699653e-08
2.09157073534e-05
3.45170234704e-08
2.09002074899e-05
1.93824738805e-08
2.08919199852e-05
9.92712634437e-09
2.08880548232e-05
4.21813256093e-09
2.08867851287e-05
9.32242773821e-10
2.08869501592e-05
-8.1612802384e-10
2.08878284657e-05
-1.63039846236e-09
2.08889869525e-05
-1.8922757414e-09
2.08901803403e-05
-1.8499103998e-09
2.08912808912e-05
-1.65704076632e-09
2.08922323364e-05
-1.4056875834e-09
2.08930199337e-05
-1.14790508668e-09
2.08936514877e-05
-9.10719695956e-10
2.08941453743e-05
-7.06005216431e-10
2.08945236412e-05
-5.36757567789e-10
2.0894808187e-05
-4.01156301585e-10
2.08950188711e-05
-2.95171298743e-10
2.08951726047e-05
-2.14076459616e-10
2.08952831522e-05
-1.53146984282e-10
2.08953615648e-05
-1.08092253368e-10
2.08954164303e-05
-7.52861923428e-11
2.08954542357e-05
-5.17018894664e-11
2.08954799329e-05
-3.49460666883e-11
2.08954971273e-05
-2.32422235629e-11
2.08955083453e-05
-1.51930756118e-11
2.08955154277e-05
-9.72155981206e-12
2.08955198066e-05
-6.0862658204e-12
2.08955225006e-05
-3.70677559577e-12
2.08955241055e-05
-2.1750081198e-12
2.08955249879e-05
-1.18661695602e-12
2.08955253782e-05
-6.24751081187e-13
2.08955255949e-05
-3.53639334864e-13
2.08955257451e-05
-2.82248893758e-13
2.08955257769e-05
-3.09466070903e-13
2.08955258327e-05
-3.17687565214e-13
2.08955260028e-05
-3.41293523879e-13
2.08955261963e-05
-4.07118162079e-13
2.08955263999e-05
-4.97994578695e-13
2.08955266431e-05
-6.23322117205e-13
2.08955268898e-05
-7.35293733202e-13
2.08955271663e-05
-7.86189272782e-13
2.08955275215e-05
-8.1950937636e-13
2.08955278923e-05
-8.78364707041e-13
2.08955282658e-05
-9.52570013076e-13
2.08955286588e-05
-1.05470819058e-12
2.0895529042e-05
-1.16236147756e-12
2.08955294529e-05
-1.2342214976e-12
2.08955299423e-05
-1.29699488525e-12
2.08955304666e-05
-1.35863074595e-12
2.0895530992e-05
-1.36776003947e-12
2.08955315959e-05
-1.35341021201e-12
2.08955322968e-05
-1.40942218504e-12
2.08955330239e-05
-1.51449157938e-12
2.08955337866e-05
-1.56940672959e-12
2.08955346171e-05
-1.60197953426e-12
2.08955354689e-05
-1.68801398423e-12
2.08955362965e-05
-1.80916494412e-12
2.08955371622e-05
-1.90790792063e-12
2.08955381222e-05
-1.99245391258e-12
2.08955391459e-05
-2.08369620615e-12
2.08955402192e-05
-2.16424059895e-12
2.08955413714e-05
-2.23691461129e-12
2.08955426032e-05
-2.33468573293e-12
2.0895543859e-05
-2.45701471589e-12
2.08955451249e-05
-2.56730875842e-12
2.08955464387e-05
-2.66380586488e-12
2.08955477939e-05
-2.76494631972e-12
2.08955491673e-05
-2.84983088487e-12
2.08955505816e-05
-2.90328713427e-12
2.0895552109e-05
-2.97526560094e-12
2.08955537478e-05
-3.09960577375e-12
2.08955554642e-05
-3.22586461215e-12
2.08955572721e-05
-3.33487484124e-12
2.08955591472e-05
-3.47774899943e-12
2.08955610972e-05
-3.68111219164e-12
2.08955631817e-05
-3.90979380545e-12
2.08955654425e-05
-4.11601194502e-12
2.0895567893e-05
-4.3188839507e-12
2.08955704939e-05
-4.57685244267e-12
2.08955732573e-05
-4.92651467374e-12
2.08955762811e-05
-5.37074379795e-12
2.08955796265e-05
-5.86002122138e-12
2.08955834045e-05
-6.36623346471e-12
2.08955877328e-05
-6.98298504792e-12
2.08955926619e-05
-7.82202253372e-12
2.08955982985e-05
-8.88578748752e-12
2.0895604829e-05
-1.01986053188e-11
2.08956124731e-05
-1.18354737465e-11
2.08956214617e-05
-1.38454380199e-11
2.08956322525e-05
-1.63011989709e-11
2.08956452623e-05
-1.9301731643e-11
2.08956608711e-05
-2.28749534696e-11
2.0895679669e-05
-2.71476924485e-11
2.08957020491e-05
-3.22427536881e-11
2.08957290007e-05
-3.88520343643e-11
2.08957628834e-05
-4.83442526357e-11
2.08958047449e-05
-5.94015285228e-11
2.08958564452e-05
-7.2935835059e-11
2.08959201647e-05
-8.95717955277e-11
2.08959988829e-05
-1.10063696222e-10
2.08960962006e-05
-1.35563425136e-10
2.08962163095e-05
-1.67285918383e-10
2.08963645909e-05
-2.06440756885e-10
2.08965480725e-05
-2.54830431149e-10
2.08967751796e-05
-3.15016350808e-10
2.0897055478e-05
-3.89504820128e-10
2.08974019521e-05
-4.8131505417e-10
2.08978300631e-05
-5.95122588465e-10
2.0898355443e-05
-7.3660457626e-10
2.08990112341e-05
-9.12638826521e-10
2.08998259655e-05
-1.13130346949e-09
2.09008360325e-05
-1.40218477782e-09
2.09020880465e-05
-1.73735377766e-09
2.09036397014e-05
-2.15253926132e-09
2.09055620744e-05
-2.66690628348e-09
2.09079436378e-05
-3.30391995113e-09
2.09108945609e-05
-4.09314066823e-09
2.09145508047e-05
-5.07132119358e-09
2.09190812454e-05
-6.28383282932e-09
2.09246959516e-05
-7.78737351161e-09
2.09316553553e-05
-9.6525075533e-09
2.09402836415e-05
-1.19672037023e-08
2.09509843635e-05
-1.48417065603e-08
2.09642603267e-05
-1.8414109746e-08
2.0980739589e-05
-2.28579852779e-08
2.10012082389e-05
-2.83924467317e-08
2.10266527419e-05
-3.52954881239e-08
2.10583144729e-05
-4.39215600648e-08
2.10977626975e-05
-5.47256430417e-08
2.11469917789e-05
-6.82975297645e-08
2.12085530452e-05
-8.54097990113e-08
2.12857392853e-05
-1.07088869555e-07
2.13828478362e-05
-1.34723946862e-07
2.15055721298e-05
-1.70239536796e-07
2.16616161712e-05
-2.16391354825e-07
2.18617142896e-05
-2.77315120311e-07
2.21214420649e-05
-3.59629110959e-07
2.24646568884e-05
-4.74858529982e-07
2.29303605482e-05
-6.45174202729e-07
2.35866630814e-05
-9.17425126997e-07
2.45572902891e-05
-1.3967346996e-06
2.60581641444e-05
-2.32568146426e-06
2.83852325381e-05
-4.26838503331e-06
-8.35939709237e-06
3.14900536386e-05
5.35844257891e-05
1.25223872847e-05
5.29166017458e-05
1.78659201425e-05
4.96393012719e-05
1.59101393043e-05
4.58382172678e-05
1.24039965744e-05
4.24428746606e-05
9.10151987787e-06
3.97331592995e-05
6.49050505662e-06
3.76912452229e-05
4.56872234392e-06
3.62011669102e-05
3.19221299756e-06
3.51355934782e-05
2.21649241506e-06
3.43848444568e-05
1.52836023701e-06
3.38626589451e-05
1.04499795069e-06
3.35040066056e-05
7.07117087775e-07
3.32609626327e-05
4.72456442768e-07
3.30987206019e-05
3.10838028303e-07
3.29922906134e-05
2.00669009139e-07
3.29239194271e-05
1.26500210626e-07
3.28811295498e-05
7.73069116213e-08
3.28552509089e-05
4.52610272384e-08
3.28403343854e-05
2.4843577371e-08
3.28323544648e-05
1.21980254634e-08
3.28286285505e-05
4.65811856354e-09
3.28274046448e-05
4.07816185752e-10
3.28275640891e-05
-1.78982244075e-09
3.28284101384e-05
-2.73836288365e-09
3.28295262002e-05
-2.96606123095e-09
3.28306758387e-05
-2.80672212471e-09
3.28317359724e-05
-2.46580619407e-09
3.28326523956e-05
-2.06436923621e-09
3.28334110049e-05
-1.66938311737e-09
3.28340192843e-05
-1.31427823745e-09
3.28344949475e-05
-1.0123512842e-09
3.28348592254e-05
-7.6538804138e-10
3.28351332414e-05
-5.69166309082e-10
3.2835336118e-05
-4.16890242604e-10
3.28354840543e-05
-3.0105605295e-10
3.28355903898e-05
-2.14440626596e-10
3.2835665791e-05
-1.50694256124e-10
3.28357184531e-05
-1.04448377748e-10
3.28357546839e-05
-7.13150477913e-11
3.28357792574e-05
-4.7916914565e-11
3.28357956209e-05
-3.16538799102e-11
3.28358063134e-05
-2.051570188e-11
3.28358131825e-05
-1.30153696935e-11
3.2835817489e-05
-8.03903039242e-12
3.28358201339e-05
-4.79420134918e-12
3.28358218085e-05
-2.76175140361e-12
3.28358227294e-05
-1.54644471694e-12
3.28358231022e-05
-7.93596349913e-13
3.2835823253e-05
-3.92586548109e-13
3.28358232587e-05
-2.90781341106e-13
3.28358232191e-05
-3.09554010372e-13
3.28358232534e-05
-3.72269288529e-13
3.28358233165e-05
-4.80418417353e-13
3.28358233814e-05
-5.87240683102e-13
3.2835823502e-05
-7.11141682144e-13
3.28358236434e-05
-8.41151669264e-13
3.28358237833e-05
-9.30357899953e-13
3.28358239883e-05
-1.01270702089e-12
3.28358242133e-05
-1.11958460766e-12
3.28358244269e-05
-1.23517431415e-12
3.28358246704e-05
-1.3663874697e-12
3.28358249165e-05
-1.49970833197e-12
3.2835825171e-05
-1.5933399735e-12
3.2835825495e-05
-1.64703791284e-12
3.28358258658e-05
-1.70836592718e-12
3.2835826209e-05
-1.76919496355e-12
3.28358265799e-05
-1.79081266378e-12
3.28358270545e-05
-1.80624645939e-12
3.28358276002e-05
-1.90621357522e-12
3.28358281398e-05
-2.00661478756e-12
3.28358286957e-05
-2.09668444248e-12
3.28358292862e-05
-2.21326023668e-12
3.28358298802e-05
-2.35649067658e-12
3.28358304944e-05
-2.4777042819e-12
3.28358311791e-05
-2.56912747847e-12
3.28358319252e-05
-2.66666263225e-12
3.28358327064e-05
-2.78188905695e-12
3.28358335354e-05
-2.91086516857e-12
3.28358344418e-05
-3.06365051945e-12
3.28358353966e-05
-3.23447064382e-12
3.2835836362e-05
-3.3837285424e-12
3.2835837356e-05
-3.49929459009e-12
3.28358383878e-05
-3.6240894584e-12
3.28358394355e-05
-3.7767088016e-12
3.28358404972e-05
-3.91774057225e-12
3.28358416626e-05
-4.03506755636e-12
3.28358429741e-05
-4.17647930433e-12
3.2835844377e-05
-4.36888087544e-12
3.28358458508e-05
-4.60925233286e-12
3.28358473896e-05
-4.88887719923e-12
3.28358490391e-05
-5.19296721249e-12
3.28358508745e-05
-5.5240418637e-12
3.28358529141e-05
-5.89978044504e-12
3.28358551693e-05
-6.35349439939e-12
3.28358576272e-05
-6.90342375683e-12
3.28358603202e-05
-7.54038491613e-12
3.28358633833e-05
-8.29267692913e-12
3.28358668631e-05
-9.18818820324e-12
3.2835870772e-05
-1.0179515789e-11
3.28358752661e-05
-1.13915664714e-11
3.2835880765e-05
-1.3233573705e-11
3.28358873334e-05
-1.54159993235e-11
3.28358951962e-05
-1.81014352892e-11
3.28359046831e-05
-2.14126101462e-11
3.28359161305e-05
-2.54566572065e-11
3.28359301465e-05
-3.03948472724e-11
3.28359474228e-05
-3.65135985439e-11
3.2835968615e-05
-4.40664913076e-11
3.28359947842e-05
-5.33393309026e-11
3.28360274222e-05
-6.48583286725e-11
3.28360678413e-05
-7.92617676098e-11
3.28361166301e-05
-9.72309148557e-11
3.28361765003e-05
-1.19399256705e-10
3.28362504399e-05
-1.46798885335e-10
3.28363416472e-05
-1.80738511436e-10
3.28364541964e-05
-2.22668170866e-10
3.28365933422e-05
-2.74570938381e-10
3.2836765319e-05
-3.39028955029e-10
3.28369776555e-05
-4.18866487996e-10
3.28372400904e-05
-5.1751608302e-10
3.2837565042e-05
-6.39754280124e-10
3.28379667527e-05
-7.91231089733e-10
3.2838463564e-05
-9.78445534823e-10
3.28390790703e-05
-1.21035842372e-09
3.28398408754e-05
-1.49819996772e-09
3.28407832125e-05
-1.85491924473e-09
3.28419497095e-05
-2.29750015389e-09
3.28433937449e-05
-2.84612690044e-09
3.28451817311e-05
-3.52550738798e-09
3.28473962105e-05
-4.36695432516e-09
3.28501388859e-05
-5.40944240991e-09
3.28535356556e-05
-6.70087463364e-09
3.28577433041e-05
-8.30087044197e-09
3.28629557714e-05
-1.02837964044e-08
3.28694135049e-05
-1.27417451862e-08
3.28774155691e-05
-1.57893764628e-08
3.28873328185e-05
-1.95696271591e-08
3.28996263434e-05
-2.42606289758e-08
3.29148700233e-05
-3.00852057479e-08
3.29337784188e-05
-3.73224571294e-08
3.29572430945e-05
-4.63228975623e-08
3.29863785002e-05
-5.75283845504e-08
3.30225812356e-05
-7.14985616826e-08
3.30676059934e-05
-8.89462948254e-08
3.3123665743e-05
-1.10785305621e-07
3.3193565443e-05
-1.38197099221e-07
3.3280881234e-05
-1.72725686086e-07
3.33902082839e-05
-2.16416277988e-07
3.35275112996e-05
-2.72026953317e-07
3.37006334907e-05
-3.43361612079e-07
3.39200670361e-05
-4.35825265261e-07
3.42001629293e-05
-5.5741104834e-07
3.45610800841e-05
-7.20545933049e-07
3.5031963839e-05
-9.45742410775e-07
3.56559081501e-05
-1.26911878975e-06
3.64965379295e-05
-1.75805480667e-06
3.76420963659e-05
-2.54229345754e-06
3.91856144992e-05
-3.86920013266e-06
4.11025795974e-05
-6.18534877197e-06
-1.01291252769e-05
4.28723066427e-05
5.35705190402e-05
8.95186714131e-06
5.55863064807e-05
1.58501345966e-05
5.52410587256e-05
1.62553861145e-05
5.35976159784e-05
1.40474395726e-05
5.15429059447e-05
1.11562297574e-05
4.95819404417e-05
8.45147047717e-06
4.79262511022e-05
6.22441153007e-06
4.66200397911e-05
4.4984243447e-06
4.56322338723e-05
3.20429833009e-06
4.49066877525e-05
2.25390641025e-06
4.43854424459e-05
1.56624330085e-06
4.40178331203e-05
1.0747264333e-06
4.37629126535e-05
7.27376966109e-07
4.35890451564e-05
4.84705516489e-07
4.34725019055e-05
3.17212190267e-07
4.33958688212e-05
2.03133180492e-07
4.33465907958e-05
1.26584912292e-07
4.33157566467e-05
7.60951460271e-08
4.32971351891e-05
4.34650281676e-08
4.32864336165e-05
2.28996214949e-08
4.32807402755e-05
1.0351423108e-08
4.32781175292e-05
3.03054939893e-09
4.32772908537e-05
-9.63137070387e-10
4.32774553691e-05
-2.90287283412e-09
4.32781067397e-05
-3.61748689058e-09
4.32789447045e-05
-3.6447478449e-09
4.32797996684e-05
-3.32076142433e-09
4.32805839688e-05
-2.84867735908e-09
4.32812597188e-05
-2.34518839161e-09
4.32818177893e-05
-1.87240085803e-09
4.32822644773e-05
-1.45901780497e-09
4.32826132514e-05
-1.11410619086e-09
4.32828799947e-05
-8.35885501261e-10
4.32830804283e-05
-6.17287703363e-10
4.32832286115e-05
-4.49227218642e-10
4.32833365095e-05
-3.22367582272e-10
4.32834140046e-05
-2.28172141872e-10
4.32834688588e-05
-1.59303544505e-10
4.32835070909e-05
-1.0963780704e-10
4.32835333803e-05
-7.43067227461e-11
4.32835511765e-05
-4.95406006108e-11
4.32835629985e-05
-3.24163007975e-11
4.32835707309e-05
-2.07587456991e-11
4.32835756651e-05
-1.29571964423e-11
4.32835786969e-05
-7.8109829304e-12
4.3283580542e-05
-4.51514899966e-12
4.32835815577e-05
-2.52986589179e-12
4.328358201e-05
-1.36371613404e-12
4.32835822429e-05
-7.01109316652e-13
4.32835823413e-05
-4.12643591144e-13
4.32835823281e-05
-3.37768964381e-13
4.32835823195e-05
-3.74877133216e-13
4.32835823111e-05
-4.92487640797e-13
4.32835822584e-05
-5.91840518057e-13
4.32835822335e-05
-6.87070627405e-13
4.32835822369e-05
-7.95251648114e-13
4.3283582226e-05
-9.06556034863e-13
4.32835822177e-05
-1.00671444916e-12
4.32835822161e-05
-1.14922180821e-12
4.32835821911e-05
-1.2990364137e-12
4.32835821902e-05
-1.43033042926e-12
4.32835822312e-05
-1.56492828194e-12
4.32835822601e-05
-1.67433390479e-12
4.3283582293e-05
-1.72598468382e-12
4.32835823744e-05
-1.77814354416e-12
4.32835824529e-05
-1.87081008096e-12
4.32835825132e-05
-1.94214873722e-12
4.32835826546e-05
-1.96892325119e-12
4.32835828651e-05
-2.02324170756e-12
4.32835830721e-05
-2.12101477604e-12
4.3283583253e-05
-2.24199356945e-12
4.3283583445e-05
-2.37156507592e-12
4.3283583653e-05
-2.50357418704e-12
4.32835838725e-05
-2.61754468575e-12
4.32835841276e-05
-2.71107701224e-12
4.32835844287e-05
-2.81951909906e-12
4.32835847608e-05
-2.96356497788e-12
4.32835851245e-05
-3.1301489144e-12
4.32835855482e-05
-3.30169674949e-12
4.32835860204e-05
-3.47950289245e-12
4.32835865002e-05
-3.65766448849e-12
4.32835869844e-05
-3.81455313357e-12
4.32835874877e-05
-3.96276977915e-12
4.32835880113e-05
-4.1503881065e-12
4.32835885467e-05
-4.37579760958e-12
4.32835891607e-05
-4.58055045131e-12
4.32835899071e-05
-4.76220082063e-12
4.32835907396e-05
-4.994167535e-12
4.32835916471e-05
-5.33082258813e-12
4.32835926477e-05
-5.74369514399e-12
4.32835937945e-05
-6.17678350389e-12
4.32835951572e-05
-6.63327119523e-12
4.32835967323e-05
-7.17013268855e-12
4.32835985395e-05
-7.87272935989e-12
4.32836006088e-05
-8.75985306652e-12
4.32836029903e-05
-9.77518762877e-12
4.32836058435e-05
-1.0940337341e-11
4.32836093e-05
-1.23890098024e-11
4.32836135184e-05
-1.42121667876e-11
4.32836186538e-05
-1.64507015375e-11
4.32836246672e-05
-1.92280361921e-11
4.32836318944e-05
-2.26646782204e-11
4.32836406512e-05
-2.69257809715e-11
4.32836513778e-05
-3.21969720413e-11
4.3283664447e-05
-3.86371437853e-11
4.32836804572e-05
-4.64670083023e-11
4.32837002523e-05
-5.61743736756e-11
4.32837245998e-05
-6.82930894902e-11
4.32837544999e-05
-8.32680107606e-11
4.32837912663e-05
-1.01738888384e-10
4.32838366694e-05
-1.24733722902e-10
4.32838927827e-05
-1.53424045685e-10
4.32839620665e-05
-1.8884592623e-10
4.32840478241e-05
-2.32539136847e-10
4.32841538661e-05
-2.8665206677e-10
4.32842848361e-05
-3.53642441941e-10
4.3284446755e-05
-4.36513106845e-10
4.328464712e-05
-5.39218990785e-10
4.32848948236e-05
-6.6648626171e-10
4.32852009157e-05
-8.23889155595e-10
4.32855799701e-05
-1.01870571153e-09
4.32860490583e-05
-1.2601250825e-09
4.32866292053e-05
-1.55886637475e-09
4.32873476866e-05
-1.92873720154e-09
4.32882370651e-05
-2.3873453387e-09
4.32893377624e-05
-2.95559494981e-09
4.32907004795e-05
-3.65987145926e-09
4.32923874071e-05
-4.53267001221e-09
4.32944756106e-05
-5.61370128213e-09
4.32970611859e-05
-6.95253598778e-09
4.33002629553e-05
-8.61104605863e-09
4.33042276216e-05
-1.06656272455e-08
4.33091376014e-05
-1.32110044433e-08
4.33152189629e-05
-1.63651915455e-08
4.33227516582e-05
-2.02746361846e-08
4.33320836204e-05
-2.51214174848e-08
4.33436463229e-05
-3.11323561066e-08
4.3357975565e-05
-3.85899896711e-08
4.33757376991e-05
-4.7847314853e-08
4.33977615396e-05
-5.93461805779e-08
4.34250795791e-05
-7.36408291956e-08
4.34589798226e-05
-9.14287383065e-08
4.35010722954e-05
-1.13591232791e-07
4.35533739892e-05
-1.41248065748e-07
4.36184186869e-05
-1.75830227402e-07
4.36994021269e-05
-2.19180617957e-07
4.38003727211e-05
-2.7369616521e-07
4.39264880909e-05
-3.42532013026e-07
4.40843680131e-05
-4.29907103859e-07
4.42825819427e-05
-5.41575278291e-07
4.4532337447e-05
-6.85580995441e-07
4.48484566929e-05
-8.73530481721e-07
4.52507223672e-05
-1.12281117738e-06
4.5765567964e-05
-1.46058788943e-06
4.6427555504e-05
-1.93110659383e-06
4.72783249689e-05
-2.60882365302e-06
4.83560098123e-05
-3.61997783566e-06
4.96571061761e-05
-5.17029676342e-06
5.10309387887e-05
-7.55917996823e-06
-1.10847159655e-05
5.19865291317e-05
5.2760607489e-05
6.19125855067e-06
5.57402413074e-05
1.2870502485e-05
5.73124118794e-05
1.46832147766e-05
5.76111980087e-05
1.37486536102e-05
5.71338685552e-05
1.16335590871e-05
5.63199841102e-05
9.265354942e-06
5.54496448991e-05
7.09475061285e-06
5.46637028943e-05
5.28436639146e-06
5.40144130458e-05
3.85358817797e-06
5.3506842534e-05
2.76147696683e-06
5.31248781206e-05
1.94820775311e-06
5.28455241178e-05
1.35408038434e-06
5.26458879421e-05
9.27013113061e-07
5.25060753043e-05
6.24518142288e-07
5.24099976301e-05
4.13289806551e-07
5.23452160224e-05
2.67914659437e-07
5.23024110531e-05
1.69389837053e-07
5.22747661685e-05
1.03740042921e-07
5.22573940015e-05
6.08372397583e-08
5.22468519805e-05
3.34417098993e-08
5.2240755721e-05
1.64476794517e-08
5.2237482711e-05
6.30352423266e-09
5.22359414767e-05
5.78073759237e-10
5.22354261977e-05
-2.38757520505e-09
5.22354781283e-05
-3.66941800134e-09
5.22358129458e-05
-3.97961530297e-09
5.22362602039e-05
-3.76805474274e-09
5.2236723025e-05
-3.31153405134e-09
5.22371508291e-05
-2.77305815587e-09
5.22375212167e-05
-2.2428722536e-09
5.22378281837e-05
-1.76601266329e-09
5.22380745387e-05
-1.36042273533e-09
5.22382672665e-05
-1.02859018294e-09
5.2238414936e-05
-7.64931092948e-10
5.22385260522e-05
-5.60317739235e-10
5.22386082691e-05
-4.04610324321e-10
5.22386682256e-05
-2.88132834628e-10
5.22387113325e-05
-2.02396085591e-10
5.22387418339e-05
-1.40202936796e-10
5.22387631305e-05
-9.56940391682e-11
5.22387778056e-05
-6.42820664328e-11
5.22387877359e-05
-4.23993715829e-11
5.22387943821e-05
-2.73806465584e-11
5.22387987584e-05
-1.72733940087e-11
5.22388015295e-05
-1.05899641139e-11
5.22388032894e-05
-6.2568481301e-12
5.22388043702e-05
-3.5759771114e-12
5.22388048857e-05
-1.97615847329e-12
5.22388050793e-05
-1.02542405922e-12
5.22388051117e-05
-5.21023022494e-13
5.22388050159e-05
-2.98001468609e-13
5.22388049145e-05
-2.51458570136e-13
5.22388048358e-05
-3.36795749453e-13
5.22388047254e-05
-4.55728250679e-13
5.22388046192e-05
-5.59173701505e-13
5.22388045397e-05
-6.6654087918e-13
5.22388044269e-05
-7.92053478644e-13
5.22388043158e-05
-9.24143491558e-13
5.22388042222e-05
-1.0840312927e-12
5.22388041086e-05
-1.25143517317e-12
5.22388040015e-05
-1.37969993247e-12
5.22388039431e-05
-1.48973337159e-12
5.22388038849e-05
-1.60443243216e-12
5.22388037971e-05
-1.6871115665e-12
5.22388037212e-05
-1.74171806906e-12
5.22388036543e-05
-1.82041725734e-12
5.22388035722e-05
-1.90824414957e-12
5.22388035186e-05
-1.95409600353e-12
5.22388035196e-05
-1.9840924589e-12
5.22388035262e-05
-2.05396645208e-12
5.22388035111e-05
-2.17535351958e-12
5.22388035065e-05
-2.31584269974e-12
5.22388035205e-05
-2.44508377793e-12
5.22388035338e-05
-2.54983328853e-12
5.22388035511e-05
-2.63942378761e-12
5.22388035905e-05
-2.74622748874e-12
5.22388036513e-05
-2.88905540139e-12
5.22388037313e-05
-3.05361245646e-12
5.22388038698e-05
-3.22520898169e-12
5.22388040743e-05
-3.41294070606e-12
5.22388042846e-05
-3.62284912817e-12
5.2238804452e-05
-3.82900785046e-12
5.22388046032e-05
-4.01639480133e-12
5.22388047948e-05
-4.21696398189e-12
5.22388050121e-05
-4.45521760046e-12
5.22388052667e-05
-4.71055498934e-12
5.22388056166e-05
-4.97832519966e-12
5.22388060394e-05
-5.29022349288e-12
5.2238806522e-05
-5.67670978988e-12
5.22388070924e-05
-6.14762130601e-12
5.2238807784e-05
-6.68371096208e-12
5.2238808651e-05
-7.28651587087e-12
5.22388097119e-05
-8.00677086041e-12
5.22388110004e-05
-8.9164053884e-12
5.22388125533e-05
-1.00644557064e-11
5.22388143902e-05
-1.14389442167e-11
5.2238816644e-05
-1.30523300694e-11
5.22388194534e-05
-1.50305940353e-11
5.22388229085e-05
-1.75347278032e-11
5.22388271679e-05
-2.06754892751e-11
5.22388324867e-05
-2.45864983808e-11
5.22388391092e-05
-2.93637177836e-11
5.22388473271e-05
-3.52104977949e-11
5.22388576208e-05
-4.2449003371e-11
5.223887041e-05
-5.14111927516e-11
5.22388862323e-05
-6.2381854895e-11
5.22389059713e-05
-7.58843190812e-11
5.22389305313e-05
-9.27113341613e-11
5.2238960963e-05
-1.13639082434e-10
5.2238998577e-05
-1.39484475148e-10
5.22390451433e-05
-1.71435695427e-10
5.22391028172e-05
-2.1109893841e-10
5.22391741464e-05
-2.60216990005e-10
5.22392624748e-05
-3.20891048487e-10
5.22393718693e-05
-3.95962630751e-10
5.22395071819e-05
-4.88944375631e-10
5.22396745294e-05
-6.04001888404e-10
5.22398817759e-05
-7.46444086843e-10
5.22401383125e-05
-9.22890691679e-10
5.22404554381e-05
-1.14125899977e-09
5.22408481609e-05
-1.41145194881e-09
5.22413345989e-05
-1.74619509751e-09
5.22419363704e-05
-2.16070722399e-09
5.22426814731e-05
-2.67383352422e-09
5.22436040412e-05
-3.30966285385e-09
5.22447458635e-05
-4.09741404974e-09
5.2246159432e-05
-5.07328343037e-09
5.22479094955e-05
-6.2823391857e-09
5.22500758058e-05
-7.77993898287e-09
5.22527577407e-05
-9.63461246767e-09
5.22560786229e-05
-1.19317913141e-08
5.22601905033e-05
-1.4777415047e-08
5.22652820506e-05
-1.83026338758e-08
5.22715873403e-05
-2.26704712385e-08
5.22793959962e-05
-2.80834135396e-08
5.2289067588e-05
-3.47930419613e-08
5.23010478686e-05
-4.31125282536e-08
5.23158894986e-05
-5.34317083502e-08
5.23342788822e-05
-6.62368558213e-08
5.23570684474e-05
-8.21358886508e-08
5.2385317804e-05
-1.0189019868e-07
5.2420345142e-05
-1.26456000644e-07
5.24637921727e-05
-1.5703828105e-07
5.25177067947e-05
-1.9516266849e-07
5.25846471791e-05
-2.42770814581e-07
5.26678162447e-05
-3.0234995251e-07
5.27712337026e-05
-3.77113515681e-07
5.28999566236e-05
-4.71255206074e-07
5.3060367799e-05
-5.90318619932e-07
5.32605432786e-05
-7.4175036566e-07
5.35107103808e-05
-9.35748046474e-07
5.38237852808e-05
-1.18660562899e-06
5.42158746793e-05
-1.51490000093e-06
5.470636804e-05
-1.95108076991e-06