/*--------------------------------*- C++ -*----------------------------------*\
| =========                 |                                                 |
| \\      /  F ield         | OpenFOAM: The Open Source CFD Toolbox           |
|  \\    /   O peration     | Version:  2106                                  |
|   \\  /    A nd           | Website:  www.openfoam.com                      |
|    \\/     M anipulation  |                                                 |
\*---------------------------------------------------------------------------*/
FoamFile
{
    version     2.0;
    format      ascii;
    arch        "LSB;label=32;scalar=64";
    class       volScalarField;
    location    "0.405";
    object      p;
}
// * * * * * * * * * * * * * * * * * * * * * * * * * * * * * * * * * * * * * //

dimensions      [0 2 -2 0 0 0 0];

internalField   nonuniform List<scalar> 
11200
(
150.096149081
147.167547166
146.053695983
145.526364255
145.159034015
144.864255125
144.602610871
144.354071995
144.109553169
143.86448465
143.616169192
143.362851991
143.103300941
142.836580385
142.561923405
142.278656554
141.986154013
141.683809808
141.371025149
141.047212158
140.711746778
140.363980237
140.003254214
139.628900922
139.240234891
138.836554887
138.417144785
137.981274242
137.52819941
137.057163562
136.567397675
136.058120917
135.528540778
134.977853289
134.405243694
133.80988767
133.190951105
132.547590375
131.878952771
131.184176909
130.462393046
129.712723378
128.934282206
128.126175931
127.287503096
126.41735406
125.514810441
124.57894454
123.608818105
122.603480813
121.561968139
120.483298542
119.366469698
118.210453773
117.014191226
115.776582992
114.496480524
113.172673298
111.803873176
110.388693914
108.92562697
107.413009645
105.848984417
104.231450677
102.557998428
100.825822287
99.0316118778
97.1714068945
95.2404031415
93.2326858891
91.1408660594
88.955584116
86.6646412673
84.2518511479
81.6951276442
78.9628103258
76.0072987845
72.7560153286
69.0552282503
64.2919178336
148.303107208
146.944932951
146.15396114
145.653946314
145.26295754
144.939074461
144.654552787
144.389949981
144.134461476
143.88193877
143.628554447
143.371794808
143.109922704
142.841661585
142.566010965
142.282136005
141.989299298
141.686817986
141.374033838
141.050284835
140.714920932
140.367266664
140.006678406
139.632488062
139.24399972
138.840506439
138.421289262
137.985616019
137.53274158
137.061908237
136.572345964
136.063272346
135.533893051
134.98340774
134.41100364
133.815856363
133.197131607
132.553985629
131.885565736
131.191010648
130.469450766
129.720008515
128.941798512
128.133927611
127.295494896
126.425591471
125.523299937
124.587693773
123.617836245
122.612778946
121.571559721
120.493199991
119.376701134
118.221039881
117.025162379
115.78797665
114.508342916
113.185061401
111.816857572
110.402362214
108.940088103
107.428400217
105.865474737
104.249248512
102.577353844
100.847050128
99.0551218887
97.1977315414
95.2702395948
93.2669613346
91.1808279589
89.0028831012
86.7215793497
84.3217807546
81.7830920384
79.077004753
76.1627206643
72.9824061482
69.4332728215
65.3204726508
147.307917037
146.653716473
146.101360409
145.663742158
145.29211783
144.970015572
144.680915204
144.410680802
144.150217286
143.893735699
143.637350951
143.378381228
143.114914384
142.845523369
142.569087059
142.284676817
141.991482983
141.688766949
141.375830514
141.051996858
140.71660394
140.369012252
140.008477812
139.634347039
139.245927921
138.842510959
138.423374905
137.987786498
137.535000304
137.064258852
136.574792991
136.065822607
135.536556699
134.986187759
134.413897918
133.818865173
133.200256358
132.557228288
131.888929086
131.194498331
130.473067282
129.723759312
128.945690105
128.137967851
127.29969321
126.429959128
125.5278506
124.592443928
123.622805861
122.617992289
121.577046351
120.498995905
119.382850251
118.22759579
117.032190475
115.795556766
114.516572668
113.194060215
111.826771685
110.413371276
108.952411816
107.442306618
105.881291651
104.267398197
102.598388922
100.871669755
99.0841990613
97.2323782149
95.3118930815
93.3175051699
91.2427650143
89.079609936
86.8179452134
84.444855145
81.9436190246
79.292377107
76.4631565991
73.4243435503
70.1399624006
66.5869960931
146.758155971
146.394774487
145.994876091
145.625885041
145.288267564
144.980164183
144.694799788
144.424094681
144.161721422
143.903052957
143.644671156
143.384044363
143.119272645
142.84888866
142.571716291
142.286773002
141.993202401
141.690228369
141.377123793
141.053188805
140.71773251
140.370064804
140.009544537
139.635448623
139.247066432
138.843690347
138.424598877
137.989057531
137.536319746
137.065627028
136.576209058
136.067283898
135.538058805
134.987732096
134.415493424
133.820517141
133.201970972
132.559012535
131.890789004
131.196440358
130.475098726
129.725888474
128.947926705
128.140323498
127.302181856
126.432597558
125.530659209
124.595447479
123.626034471
122.621482547
121.580842701
120.503152329
119.38743244
118.232683799
117.037882014
115.801971382
114.523857004
113.202394259
111.836376166
110.424517412
108.965436662
107.4576357
105.899453865
104.289031846
102.624268035
100.902763817
99.1217439314
97.2779562942
95.3675478519
93.3859087901
91.327482219
89.1855388756
86.9518473263
84.6163659143
82.1670060158
79.5896699329
76.8696131536
73.9971296123
70.97581896
67.842862297
146.424108204
146.192312581
145.890899789
145.579922042
145.275081624
144.983057136
144.704080345
144.434952979
144.171991374
143.911905321
143.651934319
143.38984084
143.123832261
142.852459437
142.574525649
142.289013905
141.995031544
141.691769382
141.378472117
141.0544172
140.718899801
140.371223652
140.010692476
139.636595757
139.248236429
138.844898259
138.425854528
137.990368339
137.537691783
137.067065807
136.577720176
136.068873628
135.539733907
134.989497666
134.417350802
133.822469498
133.204019091
132.56115733
131.893034781
131.198791794
130.477563065
129.728475265
128.95064793
128.143193935
127.305219484
126.435824292
125.534101533
124.599137496
123.630011051
122.625792759
121.585544149
120.508315275
119.393142512
118.239045414
117.04502236
115.810044898
114.533050444
113.21293556
111.848542416
110.438651914
108.98196108
107.477058578
105.922406792
104.316311257
102.656878167
100.941965513
99.169125796
97.3355371591
95.4379201319
93.4724405773
91.4346018676
89.3191395916
87.1199454726
84.8301009846
82.4421855719
79.949190319
77.3469192744
74.6398147664
71.8492370697
69.0258823497
146.22071593
146.044813743
145.803618627
145.536292235
145.25910445
144.982465159
144.710774321
144.444271394
144.181504781
143.920494345
143.6592051
143.395769891
143.128563154
142.856193993
142.57746951
142.291351951
141.996919269
141.693332089
141.37980769
141.055600324
140.719986645
140.372254828
140.01169554
139.637599133
139.249255123
138.845942855
138.426932966
137.991486511
137.538854083
137.068275369
136.578979147
136.070183292
135.541095031
134.990911075
134.418818028
133.823993047
133.205604525
132.562812119
131.894766904
131.200613239
130.479486627
129.73051442
128.952818304
128.145513829
127.307710375
126.438512323
125.537018451
124.602321936
123.633510095
122.629663979
121.589856864
120.513153588
119.39860855
118.2452633
117.052143289
115.818254528
114.542579182
113.224064246
111.861619323
110.45409459
109.000274488
107.498866649
105.948487506
104.347620893
102.694599645
100.9875739
99.2244727571
97.4029626816
95.5204038558
93.5738105723
91.5598267784
89.4747409963
87.3145870289
85.0754237176
82.7539662146
80.3488628952
77.8631814783
75.3090760918
72.7134944705
70.1235328702
146.097599378
145.941991646
145.735689553
145.499127
145.24365132
144.980371339
144.715757639
144.452248547
144.190114785
143.928528465
143.666155488
143.401519254
143.133189886
142.859858775
142.580353742
142.293627174
141.998734135
141.694808814
141.381043208
141.056669444
140.720945748
140.373145746
140.012550672
139.638443071
139.250104179
138.846808368
138.427823416
137.992408202
137.539811799
137.069273043
136.58002031
136.071271472
135.542233982
134.99210527
134.420073157
133.825315728
133.207001787
132.564291783
131.896337768
131.202283296
130.481263765
129.73241033
128.954849286
128.147700027
127.310077141
126.441090157
125.539844206
124.605440276
123.636975199
122.633541406
121.594226304
120.518112089
119.404274356
118.251780457
117.059687346
115.827037644
114.552855235
113.236146906
111.875885476
110.471011639
109.020424357
107.522963422
105.97739972
104.382420657
102.736614315
101.038451486
99.2862678275
97.4782496623
95.6124274289
93.6866867917
91.6988135453
89.6466017841
87.5280721982
85.3418921406
83.0881303102
80.7695441544
78.3936823647
75.9761431236
73.5438013647
71.1360123613
146.023519936
145.873509746
145.686753945
145.470648317
145.230942038
144.978120642
144.719483477
144.458745312
144.197378669
143.935457103
143.672239687
143.406602898
143.137306121
142.863128052
142.582925148
142.29564754
142.000333723
141.69609638
141.38210598
141.057575378
140.721746647
140.373880497
140.013248051
139.639123841
139.25078423
138.847498627
138.428532049
137.993141318
137.540574156
137.070068607
136.580852621
136.072143998
135.543150397
134.993069478
134.421089217
133.826388182
133.208136053
132.565493709
131.897614206
131.203644036
130.482724723
129.733989652
128.956565571
128.149575675
127.312139106
126.443371267
125.542384416
124.608288111
123.640189568
122.637193946
121.598404649
120.522922634
119.409846185
118.258270315
117.067286022
115.835978122
114.563424811
113.248690791
111.890830209
110.488873095
109.041828788
107.548677662
106.00836529
104.419794768
102.781821582
101.093250254
99.3528353118
97.5592909551
95.7113158947
93.8076452626
91.8471467396
89.8289905318
87.7529308855
85.6197799764
83.4321510805
81.1955773255
78.9200946357
76.6223074684
74.3268948775
72.0658634794
145.981243788
145.831796069
145.655380421
145.451642178
145.222109593
144.976401432
144.7220418
144.463403877
144.202697601
143.940603902
143.676806812
143.410448378
143.140436964
142.865623861
142.584892285
142.29719402
142.001557019
141.697078754
141.382913895
141.058260902
140.722349655
140.374430982
140.013768304
139.639631118
139.251288377
138.848009456
138.429056285
137.993683941
137.541139162
137.070659429
136.581472442
136.072795966
135.54383789
134.993796264
134.421859609
133.827207354
133.20901025
132.566430929
131.898624905
131.204740743
130.483918706
129.735295903
128.958004066
128.151170771
127.313920195
126.445373954
125.54465189
124.610872807
123.643155181
122.64061778
121.602380237
120.52756363
119.41529082
118.26468659
117.074877986
115.84499355
114.574162798
113.261518635
111.906190912
110.507311028
109.064007754
107.575407332
106.040633981
104.458810793
102.829064663
101.150535122
99.4223915721
97.6438628387
95.8142860887
93.9331885436
92.0004154049
90.0163335209
87.9821379241
85.9003198453
83.7753255011
81.6144498905
79.4289426682
77.2352149977
75.055310347
72.9154065017
145.961967542
145.812089653
145.640126669
145.442191234
145.217630061
144.97551129
144.723376602
144.46586825
144.205541748
143.943381169
143.679291175
143.412555936
143.142165761
142.8670131
142.585997244
142.298071975
142.002260223
141.697651615
141.383392471
141.058673554
140.722718181
140.374771848
140.014093741
139.63995006
139.251608405
138.848335454
138.429392182
137.994032961
137.541504114
137.071042963
136.58187722
136.073224838
135.544294065
134.994283514
134.422382429
133.827771208
133.209621769
132.567098065
131.899356823
131.205547907
130.484816103
129.736300808
128.959137091
128.15245682
127.315389496
126.447063243
125.546605769
124.613145421
123.645812252
122.643739108
121.60606276
120.531925052
119.420474165
118.270865444
117.082263031
115.853841294
114.584785613
113.27429418
111.921579408
110.525872263
109.086420981
107.602498782
106.073409415
104.498494901
102.877149281
101.20883823
99.4931290157
97.7297351125
95.9185819397
94.0599072086
92.1544030861
90.2034388221
88.2093542021
86.1759025306
84.1087913752
82.0163653245
79.9103472568
77.8064908348
75.7244854668
73.6862541648
145.961970293
145.812105872
145.640153817
145.442227586
145.217674846
144.975563667
144.723435658
144.465933163
144.205611827
143.943455841
143.679369979
143.412638514
143.142251856
142.867102534
142.586089908
142.298167817
142.002359245
141.697753868
141.383498057
141.05878263
140.722830967
140.374888651
140.014214955
139.640076203
139.251740172
138.848473602
138.429537645
137.994186881
137.541667876
137.071218136
136.582065804
136.07342929
135.54451734
134.994529197
134.422654893
133.828075733
133.209964722
132.567487245
131.899801749
131.206060534
130.485410504
129.736994014
128.959949888
128.153414485
127.316522707
126.448409241
125.548209762
124.615062289
123.648108614
122.646495824
121.60937798
120.535917886
119.425289261
118.276678425
117.089286822
115.86233401
114.595060848
113.286730742
111.936638588
110.544115112
109.108526224
107.629289914
106.105884951
104.537865477
102.924881419
101.266705558
99.5632707975
97.8147266971
96.0215188069
94.1844972732
92.3050902617
90.3855999738
88.4291401858
86.4403320742
84.4256909936
82.3941181493
80.3573990844
78.3305507849
76.3314752292
74.3792646281
145.981252096
145.831845102
145.65546247
145.451751984
145.222244801
144.976559339
144.722219612
144.463599146
144.20290827
143.940828262
143.677043491
143.410696315
143.140695398
142.865892261
142.585170324
142.29748155
142.001854053
141.697385449
141.383230558
141.058588001
140.722687853
140.374781175
140.014131659
139.64000922
139.251683206
138.848423251
138.429491797
137.994144507
137.541628838
137.071183088
136.582036036
136.073406733
135.544504591
134.994529562
134.422672534
133.828115788
133.210033467
132.567592407
131.899952729
131.20626871
130.485689728
129.737361165
128.960425493
128.154023481
127.317295387
126.449382357
125.549427936
124.616579685
123.649990966
122.648822898
121.612246541
120.539445376
119.429618088
118.281981476
117.09577362
115.870258705
114.604731201
113.298520572
111.950999999
110.561592115
109.129783361
107.655127421
106.137267958
104.575956857
102.971079402
101.322691401
99.6310783104
97.8968260089
96.1208234579
94.3044456315
92.449669956
90.5591790978
88.6369494662
86.688239706
84.7200409685
82.7415059744
80.7643074694
78.8028492465
76.8738475187
74.9947415461
146.023533979
145.873592711
145.686892542
145.470833416
145.231169508
144.978385802
144.719781576
144.459072239
144.197730988
143.935831982
143.672634864
143.407016637
143.137737165
142.863575539
142.583388544
142.29612661
142.000828501
141.696607137
141.382633231
141.058119912
140.722309587
140.374463339
140.01385265
139.639752868
139.251440637
138.848186239
138.429255424
137.993905935
137.541386651
137.070937014
136.581786705
136.073155579
135.544253812
134.99428213
134.42243228
133.827887502
133.209823144
132.567407367
131.899801933
131.206163093
130.485642595
129.737388727
128.960547471
128.154263821
127.317683225
126.449953066
125.550224462
124.61765416
123.651406656
122.650656588
121.614591315
120.542414159
119.433347736
118.286638029
117.101558165
115.877414855
114.613553464
113.309366152
111.964299106
110.577865954
109.149657392
107.679360363
106.166774659
104.611840051
103.014670581
101.375580851
99.695125775
97.9741636294
96.214014816
94.4164942172
92.5840567449
90.7199637174
88.8285235266
86.9153378758
84.9876250189
83.0545565195
81.1275726839
79.2206189263
77.349826641
75.5321089179
146.097619516
145.94211068
145.735887763
145.499390787
145.243974456
144.980746951
144.716178895
144.452709619
144.190610856
143.929055602
143.666710575
143.402099907
143.133794379
142.860485933
142.581002827
142.294297869
141.999426488
141.695523194
141.38178031
141.057430324
140.721731919
140.373959298
140.013394309
139.639320256
139.251019014
138.847766051
138.428830199
137.993471587
137.540940867
137.070478828
136.581316217
136.07267379
135.543762523
134.99378394
134.421930626
133.827386724
133.20932868
132.566925959
131.899341887
131.205734611
130.485258126
129.73706343
128.960299806
128.154116205
127.317662887
126.450093103
125.550565071
124.618244144
123.652305246
122.651935665
121.616338053
120.544734179
119.436369035
118.290515763
117.106480355
115.883608891
114.62129434
113.318986431
111.976201376
110.592533848
109.167675245
107.701429407
106.193735163
104.644692399
103.054593184
101.423975988
99.7536759894
98.044876631
96.2991893514
94.5187560397
92.7063746784
90.8656449244
89.0011480677
87.1186580003
85.2254035932
83.3303681575
81.4446306326
79.5817595581
77.757764571
75.9900537337
146.22074281
146.044972531
145.803881626
145.536640472
145.259529115
144.982956875
144.711324029
144.444871517
144.182149136
143.921177942
143.659924017
143.396521155
143.129344606
142.857004164
142.578307475
142.292217311
141.997812046
141.694252649
141.380756727
141.056578847
140.720995957
140.373296849
140.012774815
139.63872159
139.250425445
138.847166917
138.428218264
137.992842164
137.540291165
137.069807474
136.580622941
136.071959231
135.543028121
134.993031921
134.421164011
133.826609409
133.20854549
132.56614284
131.898566153
131.204975276
130.48452632
129.736372808
128.959667078
128.153561771
127.317211526
126.449774914
125.550416586
124.618309694
123.652638622
122.652602081
121.617416636
120.546320692
119.438579419
118.293490282
117.11038899
115.888656936
114.627730213
113.327109543
111.986372883
110.605189826
109.183337981
107.720724199
106.217409812
104.673641202
103.089885196
101.466870438
99.8056401674
98.1076158298
96.3746722131
94.6092224112
92.8143213744
90.9937861593
89.1523401742
87.2957739617
85.4311484032
83.5670567534
81.7140129922
79.8850971646
78.0963395238
76.3664130226
146.424142484
146.192515957
145.891234034
145.580361707
145.275614631
144.983671184
144.704764001
144.435696908
144.172788095
143.91274888
143.652820086
143.390765346
143.124793024
142.853454827
142.57555475
142.290076434
141.996127757
141.692899876
141.379637671
141.055618809
140.720138983
140.372501543
140.012011182
139.637968751
139.249667761
138.846393796
138.427422566
137.992019222
137.539438105
137.068922738
136.579705974
136.071010308
135.542048251
134.992022861
134.420128275
133.825550396
133.207467604
132.565051586
131.897468254
131.203878748
130.483440787
129.7353099
128.958641025
128.152589989
127.316315328
126.448980348
125.549755406
124.617820525
123.652368395
122.652607745
121.617767341
120.547100293
119.439889523
118.295453744
117.113154773
115.892404924
114.632676828
113.333515324
111.994551271
110.615517331
109.196266678
107.736795733
106.237270689
104.698059184
103.119767651
101.50328575
99.8498370039
98.1610378432
96.4389670575
94.6862424205
92.9061056085
91.1025142173
89.2802422771
87.4449867223
85.6034988629
83.7637727368
81.9354297238
80.1306241162
78.364871402
76.6580265463
146.758197633
146.395026087
145.995284068
145.626416495
145.288906464
144.980894822
144.695608248
144.424969925
144.162654762
143.904037579
143.645701836
143.385117247
143.120385061
142.850038999
142.57290394
142.287998342
141.99446691
141.691534432
141.378474301
141.054587543
140.719188549
140.371593813
140.011119404
139.637072744
139.248753768
138.845452333
138.426447249
137.991005951
137.538384325
137.067826936
136.578567434
136.069828978
135.540824583
134.990757722
134.418822971
133.824206848
133.206088652
132.563641072
131.896031199
131.202421825
130.481972667
129.733840839
128.95718343
128.151158897
127.314928925
126.447660623
125.548528965
124.616719611
123.65143215
122.651883969
121.617313433
120.546985611
119.440197945
118.29628649
117.114634109
115.894678608
114.635924535
113.337954102
112.000441927
110.623172755
109.206061639
107.749177647
106.252771904
104.717310497
103.143512563
101.532394882
99.8853223923
98.2040650644
96.4908605763
94.7484811302
92.9803025042
91.1903711656
89.3834632672
87.5651302713
85.7417364887
83.9204990718
82.1097207499
80.3197830776
78.5639018353
76.8607304778
147.307970853
146.654030415
146.101852094
145.664370697
145.292863509
144.970859399
144.681841041
144.411676151
144.151272401
143.894842952
143.638504447
143.379576488
143.116148083
142.846793138
142.570391361
142.28601498
141.992855595
141.69017674
141.377282524
141.053497554
140.718153791
140.370581065
140.010100511
139.636032051
139.247680377
138.844338582
138.425288017
137.989797964
137.537125791
137.066517041
136.577206105
136.068416748
135.539362572
134.989247605
134.417266931
133.822607198
133.204446841
132.561959834
131.894314113
131.200673083
130.480196989
129.732045158
128.955376571
128.149351817
127.313135165
126.445896823
125.546815464
124.615081165
123.649898841
122.650491648
121.616106421
120.54601803
119.439535224
118.296007956
117.114835289
115.895474709
114.63745295
113.340380093
112.003964603
110.62803087
109.212540817
107.757618824
106.263580886
104.730968392
103.160586836
101.553550065
99.9113297963
98.2358098811
96.5293435501
94.7948165954
93.0357024956
91.2561111381
89.460815414
87.6552442386
85.8454148822
84.0377153774
82.2388067068
80.4562487045
78.6971560949
76.9702255518
148.303208525
146.94539247
146.154645446
145.654802537
145.263962522
144.940207423
144.655796753
144.391291927
144.135891263
143.883448425
143.630137687
143.373446614
143.111638911
142.843438456
142.567844775
142.284022644
141.991233765
141.688793622
141.376045012
141.052339369
140.717017159
140.369429143
140.008923408
139.634816708
139.246417491
138.843022227
138.423913912
137.9883608
137.535621952
137.064944422
136.575563223
136.066702438
135.537575951
134.987388082
134.415334294
133.820602165
133.202372942
132.559819577
131.892110121
131.198408906
130.477877272
129.729675092
128.952962373
128.146901109
127.310657304
126.443403245
125.544320122
124.612601043
123.64745454
122.648108609
121.613815115
120.543855263
119.437545442
118.294244889
117.113363824
115.894373509
114.636817854
113.340325894
112.004628636
110.629577788
109.215167497
107.761559806
106.269114284
104.73842218
103.170345538
101.566061606
99.9271120656
98.2554548667
96.5535164113
94.8242711742
93.0712670208
91.2986721246
89.5112912976
87.7145419134
85.9143210289
84.1164953914
82.3265946487
80.5493818724
78.7796604765
76.9879273525
150.096317083
147.168219156
146.054690921
145.527619906
145.160520112
144.865947051
144.604490066
144.356124947
144.111770048
143.866858474
143.61869532
143.365527812
143.106125742
142.839555371
142.565051804
142.281943671
141.989607133
141.687437565
141.374832464
141.051184327
140.715888139
140.368303961
140.007762995
139.633600142
139.24513338
138.841663591
138.42247701
137.98684875
137.534036474
137.063285761
136.573831639
136.064898342
135.535699827
134.985440467
134.413315716
133.818512877
133.200212047
132.557587164
131.88980697
131.19603608
130.475436262
129.727167999
128.950392023
128.144271138
127.307972296
126.440668886
125.541543429
124.60979062
123.644620777
122.645264183
121.610975597
120.541039639
119.43477673
118.291550757
117.110777619
115.891935206
114.634574942
113.338335943
112.002960919
110.628315261
109.214409278
107.761424122
106.269741919
104.739980378
103.173032288
101.57011002
99.9327950793
98.2630947819
96.5635062914
94.8370350096
93.0872860749
91.3184964666
89.5355552484
87.7439810981
85.9498199639
84.1595687179
82.3796480387
80.614840993
78.8446880109
76.9447371292
56.8978528927
53.3457208291
50.9542800505
48.9968605265
47.3248192195
45.8679841494
44.582370504
43.4382718582
42.4140152861
41.4928540902
40.6613814756
39.9085913922
39.2252812567
38.6036513208
38.0370211835
37.5196212144
37.0464340243
36.613071233
36.2156756281
35.8508422427
35.5155538789
35.2071278739
34.92317153
34.6615445443
34.4203272034
34.1977931599
33.9923862173
33.8027002443
33.6274619627
33.4655158513
33.315811086
33.1773900224
33.0493781048
32.9309750528
32.8214471572
32.7201204792
32.6263747764
32.5396381332
32.4593819024
32.3851160815
32.3163846243
32.2527608662
32.1938413089
32.1392410993
32.0886410345
32.0419565701
31.9989618863
31.9592616984
31.9225370792
31.8885060356
31.856967264
31.8277359271
31.8006367812
31.7755079338
31.7522118795
31.7306114353
31.7105560228
31.6919209633
31.6745904232
31.6584702398
31.6434456835
31.6294209633
31.6163101548
31.6040337325
31.5925192034
31.5816991598
31.5715130512
31.5619048147
31.5528235352
31.5442200562
31.5360514295
31.5282729659
31.5208533114
31.5137523108
31.5069454792
31.5004008207
31.4940890198
31.4879914901
31.4820841349
31.47634588
31.4707609785
31.4653123611
31.4599848718
31.4547667963
31.4496525143
31.444626944
31.4396782371
31.4347986942
31.4299708445
31.4252028289
31.4204702934
31.4157909344
31.4111578432
31.4065500245
31.4019603657
31.3973828074
31.39281197
31.3882433069
31.3836726977
31.379096187
31.3745099097
31.3699102057
31.3652937373
31.3606573748
31.3559982587
31.3513136486
31.3466009706
31.3418576668
31.3370811642
31.3322688942
31.3274183196
31.3225270076
31.3175927409
31.3126134645
31.307587429
31.3025130171
31.2973889332
31.2922140654
31.2869874732
31.2817085737
31.2763767481
31.2709909774
31.2655462954
31.2600238137
31.2543737162
31.2485224398
31.2433251727
31.2382746679
31.2330188257
31.2277543689
31.2225654632
31.2175062703
31.2126219864
31.2079706981
31.2036104733
31.1995985584
31.195986016
31.1928143698
31.1900906164
31.1877937779
31.1861198191
31.1846388771
31.1833786694
31.1816931691
31.1779417446
31.1679267594
31.1416194351
31.0773767228
30.9339767574
30.6408987055
30.0929440094
29.157324217
27.7013932303
25.6323650095
22.9241545381
19.6328235601
15.8769363583
11.6248144468
6.60126109393
1.5697804795
60.0792155124
56.0263888886
53.3144002114
51.1620391473
49.36008808
47.8101374878
46.4539737217
45.2543620282
44.185127727
43.2266373762
42.3635514368
41.5835249617
40.8764030512
40.233694595
39.6482085259
39.1137921837
38.6251368947
38.1776296513
37.7672377018
37.3904169726
37.0440384264
36.7253281378
36.4318177842
36.1613035161
35.9118113237
35.6815679584
35.4689759706
35.2725926944
35.091112024
34.9233487275
34.76822487
34.6247579428
34.492050467
34.3692810376
34.2556964561
34.1506049071
34.0533701491
33.963405954
33.8801720308
33.8031699361
33.7319400794
33.6660594017
33.605141569
33.5488326603
33.4967909819
33.4486068406
33.4040044766
33.3627054741
33.3244961346
33.2891539061
33.2564593389
33.2262048339
33.1981974796
33.1722566404
33.1482110554
33.1259067497
33.1052062046
33.0859772946
33.0680970509
33.0514476574
33.0359350359
33.0214661959
33.0079512652
32.9953088742
32.9834639462
32.9723477702
32.9618948179
32.9520481331
32.9427507793
32.9339521739
32.9256116649
32.9176780413
32.9101217325
32.9028996202
32.8959813709
32.8893399318
32.8829438565
32.8767700535
32.8707962816
32.8649997505
32.8593648391
32.8538749448
32.8485140818
32.8432638894
32.8381049549
32.8330313684
32.8280295869
32.8230927291
32.8182085954
32.8133788506
32.808587771
32.8038261577
32.7990874744
32.7943717177
32.7896751243
32.7849924029
32.7803183283
32.7756482121
32.7709779458
32.7663037389
32.7616219715
32.7569290347
32.7522215141
32.7474964402
32.742750859
32.7379820693
32.7331873551
32.7283640768
32.7235095887
32.7186211983
32.7136963505
32.7087325259
32.7037274404
32.6986789873
32.6935854829
32.6884453045
32.6832575205
32.6780212977
32.6727368008
32.6674045285
32.66202665
32.6566063514
32.6511486637
32.645662821
32.6401789875
32.6347117756
32.6293011268
32.6236468967
32.6182287341
32.6129624403
32.6077751512
32.602771599
32.5979959462
32.5935128752
32.5893918849
32.585704298
32.5825181903
32.579890506
32.5778266593
32.5764108642
32.5755962213
32.5752596252
32.5751195465
32.5743560988
32.5708091683
32.5592971697
32.5278100163
32.4514464849
32.2840226879
31.9487005385
31.3341736902
30.3046651272
28.7306291424
26.5290935922
23.6858558603
20.261485368
16.3725404334
12.0025909745
6.89021836142
1.70327197312
62.2866467587
58.3531970523
55.4860406023
53.2021054007
51.3001345928
49.6736507417
48.2576214077
47.0100312821
45.9014574831
44.910038598
44.0188777778
43.2145214399
42.4860129308
41.824273334
41.2216751796
40.6717381085
40.168904477
39.7083698641
39.2859525546
38.8979910015
38.5412621185
38.2129155423
37.910419807
37.6315180019
37.3741908358
37.136625732
36.9171906803
36.7144121321
36.5269561193
36.3536119646
36.1932782735
36.0449507911
35.9077118512
35.7807211748
35.6632079308
35.5544637352
35.4538367104
35.3607258608
35.2745765765
35.1948762346
35.1211506347
35.0529603965
34.9898981216
34.9315856532
34.8776862949
34.8278780685
34.781643491
34.7388336859
34.6992724999
34.662694546
34.6288604632
34.5975546051
34.5685785873
34.5417486737
34.5168944369
34.4938586823
34.472494912
34.4526667242
34.4342481696
34.4171123733
34.4011583275
34.386286533
34.3724047602
34.3594268882
34.347275014
34.3358774035
34.3251676962
34.3150862893
34.3055763668
34.2965836092
34.2880682023
34.2799751278
34.2722746887
34.2649139286
34.2578683716
34.2511150767
34.2446145883
34.238343864
34.2322822079
34.2264035578
34.2206903117
34.2151215382
34.2096785749
34.2043529362
34.1991335181
34.1940088536
34.1889643358
34.1839914015
34.1790751815
34.174214161
34.1693970201
34.1646171913
34.1598676838
34.1551429052
34.1504366093
34.1457430473
34.1410569273
34.1363732903
34.1316877259
34.1269963146
34.1222953341
34.117581087
34.1128500645
34.1080991731
34.1033254778
34.0985262308
34.0936986838
34.0888401472
34.0839479829
34.0790195671
34.074052448
34.0690442058
34.0639927276
34.0588960004
34.0537525635
34.0485609188
34.0433203574
34.0380304212
34.0326916686
34.027305344
34.0218743621
34.0164033813
34.0108991049
34.0053721424
33.9998424309
33.9943093594
33.9887930556
33.9833335905
33.9779329008
33.9726753954
33.9673571025
33.9623482687
33.9576450044
33.9533020625
33.9493861558
33.9459848707
33.9431874041
33.9410671828
33.9396180553
33.9388883901
33.9389111335
33.9394925675
33.9402488857
33.9401077638
33.9363325365
33.9226967412
33.885184124
33.7956276276
33.6030867768
33.2248912485
32.5444662458
31.4239987266
29.7374959836
27.4110880457
24.4406914796
20.8895662236
16.8709551197
12.3829147206
7.17878927927
1.83455392286
64.0908241639
60.3661029893
57.4621099385
55.1069250558
53.1368274759
51.4524774702
49.9887119331
48.7016498486
47.5600425372
46.5405638929
45.62520012
44.7996610391
44.0523662826