/*--------------------------------*- C++ -*----------------------------------*\
| =========                 |                                                 |
| \\      /  F ield         | OpenFOAM: The Open Source CFD Toolbox           |
|  \\    /   O peration     | Version:  2106                                  |
|   \\  /    A nd           | Website:  www.openfoam.com                      |
|    \\/     M anipulation  |                                                 |
\*---------------------------------------------------------------------------*/
FoamFile
{
    version     2.0;
    format      ascii;
    arch        "LSB;label=32;scalar=64";
    class       surfaceScalarField;
    location    "0.405";
    object      phi;
}
// * * * * * * * * * * * * * * * * * * * * * * * * * * * * * * * * * * * * * //

dimensions      [0 3 -1 0 0 0 0];

oriented        oriented;

internalField   nonuniform List<scalar> 
22100
(
3.38461205139e-05
1.6153879501e-05
2.24572102769e-05
1.13889102396e-05
1.62585536705e-05
6.19865665299e-06
1.27977769266e-05
3.46077675379e-06
1.08046433104e-05
1.99313364691e-06
9.60459054118e-06
1.20005279456e-06
8.85132305955e-06
7.53267527005e-07
8.36435454966e-06
4.86968573293e-07
8.04433700016e-06
3.20017628122e-07
7.83284256854e-06
2.11494532679e-07
7.6933997968e-06
1.39442899229e-07
7.60224332406e-06
9.11566273681e-08
7.54348096071e-06
5.87625350221e-08
7.50634445217e-06
3.71366927834e-08
7.48350531865e-06
2.28393215432e-08
7.46998482644e-06
1.35206663131e-08
7.46242047895e-06
7.56448092681e-09
7.45855264895e-06
3.86793300896e-09
7.45683373126e-06
1.71889436777e-09
7.45642722621e-06
4.06550456361e-10
7.45677709489e-06
-3.49915579277e-10
7.45746332415e-06
-6.86260553077e-10
7.45822172086e-06
-7.58432203041e-10
7.45894707705e-06
-7.25393642194e-10
7.45959145735e-06
-6.44382347636e-10
7.4601354647e-06
-5.43984653105e-10
7.46057763042e-06
-4.42139151353e-10
7.46092639525e-06
-3.48744949361e-10
7.46119465888e-06
-2.68265065224e-10
7.46139650242e-06
-2.01890395944e-10
7.46154531334e-06
-1.48913914239e-10
7.46165279712e-06
-1.07634125778e-10
7.46172873821e-06
-7.61115383898e-11
7.46178131239e-06
-5.27408604885e-11
7.46181444254e-06
-3.33024256207e-11
7.46183320903e-06
-1.88405489606e-11
7.46184238412e-06
-9.18930080703e-12
7.46184534588e-06
-2.94878666103e-12
7.46184404299e-06
1.38613692466e-12
7.46183958779e-06
4.59743261244e-12
7.4618328478e-06
6.88838557264e-12
7.4618243838e-06
8.5819269046e-12
7.4618145581e-06
9.89648674962e-12
7.461803515e-06
1.1002505975e-11
7.46179126626e-06
1.2104333751e-11
7.46177776412e-06
1.33174776533e-11
7.46176278039e-06
1.47205440794e-11
7.46174605167e-06
1.64394116766e-11
7.46172717741e-06
1.85780369021e-11
7.46170564259e-06
2.12501434975e-11
7.46168083148e-06
2.45422348292e-11
7.46165207254e-06
2.8545877297e-11
7.46161855761e-06
3.3337915595e-11
7.46157941089e-06
3.89916703269e-11
7.46153374414e-06
4.55217612065e-11
7.46148074516e-06
5.28507712728e-11
7.46141976422e-06
6.0762390331e-11
7.46135056357e-06
6.88824083855e-11
7.46127417278e-06
7.62841452478e-11
7.46119286954e-06
8.10655720694e-11
7.4611130118e-06
7.95028903877e-11
7.46104691148e-06
6.58843389938e-11
7.46100203533e-06
4.46562111229e-11
7.4609978935e-06
3.94146955605e-12
7.46107043992e-06
-7.27747983218e-11
7.46127794867e-06
-2.07694395732e-10
7.4617150592e-06
-4.37069348878e-10
7.46253170004e-06
-8.16556667741e-10
7.46396307787e-06
-1.43129624157e-09
7.4663645953e-06
-2.40145288292e-09
7.47018539048e-06
-3.82079794066e-09
7.4766373414e-06
-6.45199748192e-09
7.48741054905e-06
-1.07733176733e-08
7.50558715012e-06
-1.8176711645e-08
7.53877275756e-06
-3.31857179407e-08
7.6079837981e-06
-6.92111361316e-08
7.77463163535e-06
-1.66647892512e-07
8.22949869114e-06
-4.54867021576e-07
9.69698235342e-06
-1.46748347872e-06
-5.45084806212e-06
1.51478304916e-05
5.02175950119e-05
1.59362845158e-05
4.42441119302e-05
1.73623933149e-05
3.77795020149e-05
1.26632666345e-05
3.26461447008e-05
8.59413411026e-06
2.89380927725e-05
5.70118565992e-06
2.6359622556e-05
3.77852310466e-06
2.45875183436e-05
2.52537185687e-06
2.33734765088e-05
1.70101056168e-06
2.25435277126e-05
1.14996661812e-06
2.19782193177e-05
7.76803164628e-07
2.15955171154e-05
5.22145374867e-07
2.13387409117e-05
3.4793313999e-07
2.11684997742e-05
2.29003999951e-07
2.10573425561e-05
1.48294226884e-07
2.09861550164e-05
9.40271322039e-08
2.09416829802e-05
5.79929150613e-08
2.09148014793e-05
3.44461492497e-08
2.08993026078e-05
1.93668552045e-08
2.08910790494e-05
9.94251161737e-09
2.08872788919e-05
4.20665477432e-09
2.08862099886e-05
7.18919468581e-10
2.08864557539e-05
-9.32096273108e-10
2.08873272517e-05
-1.62995945501e-09
2.08884668153e-05
-1.86496330925e-09
2.08896402185e-05
-1.81776838518e-09
2.08907232904e-05
-1.6270212786e-09
2.08916609462e-05
-1.37977747512e-09
2.08924384859e-05
-1.12631915097e-09
2.08930636643e-05
-8.93540321877e-10
2.08935557003e-05
-6.94085951057e-10
2.08939394224e-05
-5.32836274585e-10
2.08942407152e-05
-4.09195270641e-10
2.08944514461e-05
-2.8713241726e-10
2.08945983171e-05
-1.99843384983e-10
2.0894698522e-05
-1.33727121046e-10
2.08947638023e-05
-8.42627392049e-11
2.08948044017e-05
-4.97318510738e-11
2.08948284172e-05
-2.68213585281e-11
2.08948406392e-05
-1.06365983124e-11
2.08948439977e-05
1.47396361398e-12
2.08948408306e-05
1.02285779453e-11
2.08948327546e-05
1.66994358399e-11
2.08948209061e-05
2.16573149078e-11
2.08948060084e-05
2.56778456782e-11
2.08947884169e-05
2.92909624797e-11
2.08947683407e-05
3.291314234e-11
2.08947457926e-05
3.67520800973e-11
2.08947206861e-05
4.1033843142e-11
2.08946928383e-05
4.59418444135e-11
2.08946620151e-05
5.16525267652e-11
2.08946279829e-05
5.81644452787e-11
2.08945906139e-05
6.55258680067e-11
2.08945499256e-05
7.3659064385e-11
2.08945062213e-05
8.23261302474e-11
2.08944603364e-05
9.1007091842e-11
2.08944141033e-05
9.8731057167e-11
2.08943710151e-05
1.03611693934e-10
2.08943367412e-05
1.02564218808e-10
2.0894321107e-05
9.14534988583e-11
2.08943394782e-05
6.23519357943e-11
2.08944187869e-05
-3.51841271225e-13
2.08946078401e-05
-1.23604354019e-10
2.08949751871e-05
-3.23119690537e-10
2.0895639777e-05
-6.60918438026e-10
2.08967081728e-05
-1.1412550957e-09
2.08983589476e-05
-1.85851750066e-09
2.09009498679e-05
-3.02794486706e-09
2.09050287446e-05
-4.89535079416e-09
2.09114646614e-05
-7.86716931834e-09
2.09216811767e-05
-1.26179739697e-08
2.09381683079e-05
-2.03079665781e-08
2.09650701401e-05
-3.33539709945e-08
2.10093257429e-05
-5.50291295044e-08
2.10841051657e-05
-9.29563752291e-08
2.12153291567e-05
-1.64409901323e-07
2.14558944063e-05
-3.09776481029e-07
2.19136329789e-05
-6.24386508817e-07
2.28004072256e-05
-1.34164143786e-06
2.44439394422e-05
-3.11101585105e-06
-7.03670245081e-06
2.60297961133e-05
5.35171054424e-05
1.24191791221e-05
5.29349685134e-05
1.79445302552e-05
4.96538404362e-05
1.59443947808e-05
4.58401818326e-05
1.24077927552e-05
4.24400929033e-05
9.10127466068e-06
3.97291730129e-05
6.48944307534e-06
3.76873066194e-05
4.56723835298e-06
3.61976638981e-05
3.19065341447e-06
3.51326133943e-05
2.21501728302e-06
3.43823685064e-05
1.52704825283e-06
3.38606277212e-05
1.04388639533e-06
3.35023477072e-05
7.06213416526e-07
3.32596030551e-05
4.71748933393e-07
3.30975930081e-05
3.10304556822e-07
3.29913371712e-05
2.00283218118e-07
3.29230954947e-05
1.26234789473e-07
3.28804077231e-05
7.71341113363e-08
3.28546226746e-05
4.5151971912e-08
3.28397956059e-05
2.47695594193e-08
3.28318690981e-05
1.21331297415e-08
3.28279995677e-05
4.58838318472e-09
3.28270009e-05
6.65238321812e-11
3.28271816494e-05
-1.81073366512e-09
3.28280300499e-05
-2.71335803894e-09
3.28291458139e-05
-2.93350712041e-09
3.28302930483e-05
-2.77422406149e-09
3.28313489851e-05
-2.43570178943e-09
3.28322592881e-05
-2.03666909592e-09
3.28330090921e-05
-1.64346996277e-09
3.28336044677e-05
-1.28966400803e-09
3.28340603409e-05
-9.88970858961e-10
3.28343949435e-05
-7.4408448215e-10
3.28346608757e-05
-5.53359532797e-10
3.2834876952e-05
-4.16138270756e-10
3.28350237709e-05
-2.80667594115e-10
3.28351226964e-05
-1.83278267559e-10
3.28351883912e-05
-1.15374027682e-10
3.28352302478e-05
-6.85066662434e-11
3.28352550761e-05
-3.52798118342e-11
3.28352668397e-05
-1.00758164172e-11
3.283526904e-05
8.18017491829e-12
3.28352641269e-05
2.16501810619e-11
3.28352538955e-05
3.178833572e-11
3.28352396203e-05
3.9763018734e-11
3.28352220506e-05
4.65651375035e-11
3.28352016614e-05
5.29067146684e-11
3.28351788279e-05
5.91816084644e-11
3.28351537795e-05
6.5671911122e-11
3.28351266478e-05
7.26473138737e-11
3.28350974751e-05
8.04461696127e-11
3.28350665786e-05
8.87298143586e-11
3.28350345515e-05
9.72415503697e-11
3.28350024521e-05
1.05473335073e-10
3.2834972084e-05
1.12408125086e-10
3.28349464134e-05
1.16312865943e-10
3.28349300446e-05
1.14670679011e-10
3.28349303971e-05
1.03061313038e-10
3.28349586871e-05
7.38529768277e-11
3.28350323468e-05
1.72844123618e-11
3.28351815802e-05
-8.71152183255e-11
3.28354575313e-05
-2.76689682383e-10
3.28359499332e-05
-6.1632406495e-10
3.28366702342e-05
-1.04361305333e-09
3.28377165394e-05
-1.70735827341e-09
3.28393484313e-05
-2.77321621271e-09
3.28419398378e-05
-4.44999955105e-09
3.28459952255e-05
-7.08326981175e-09
3.28523290477e-05
-1.12290492659e-08
3.28622541325e-05
-1.779217719e-08
3.28779344228e-05
-2.82983179371e-08
3.29030294224e-05
-4.54030988405e-08
3.29428881195e-05
-7.32128351537e-08
3.30073368804e-05
-1.19478076993e-07
3.31133510799e-05
-1.98970755591e-07
3.32899314926e-05
-3.40990453147e-07
3.35852605829e-05
-6.05105614011e-07
3.40703818775e-05
-1.10950771067e-06
3.48113759877e-05
-2.08263562314e-06
3.56719849911e-05
-3.97162626222e-06
-7.1046005657e-06
3.57398783764e-05
5.3510566552e-05
8.90861261613e-06
5.55742224006e-05
1.58808744386e-05
5.52424827936e-05
1.62761344671e-05
5.35977863101e-05
1.40524892868e-05
5.15418481302e-05
1.1157212916e-05
4.95802804357e-05
8.45101084979e-06
4.79243514954e-05
6.22316738778e-06
4.66181397229e-05
4.49686530647e-06
4.56304670479e-05
3.20269010488e-06
4.49051182619e-05
2.25239721991e-06
4.43840912722e-05
1.56491359907e-06
4.40166953515e-05
1.07360957484e-06
4.37619691063e-05
7.26475430541e-07
4.35882707516e-05
4.84003165098e-07
4.34718716226e-05
3.16682574475e-07
4.33953617585e-05
2.0274485158e-07
4.33461916344e-05
1.26304344509e-07
4.33154541359e-05
7.5889542728e-08
4.32969178259e-05
4.33058761483e-08
4.32862917935e-05
2.27591513881e-08
4.32806889629e-05
1.01911821945e-08
4.32778813102e-05
2.87414142604e-09
4.32770535562e-05
-9.8297732439e-10
4.32772715149e-05
-2.93128553428e-09
4.32779591341e-05
-3.6210753334e-09
4.32788222696e-05
-3.63730227456e-09
4.32796951357e-05
-3.30851683956e-09
4.32804925861e-05
-2.83410696037e-09
4.32811782558e-05
-2.32918685338e-09
4.32817439252e-05
-1.85545570462e-09
4.32821964349e-05
-1.44166837774e-09
4.32825485359e-05
-1.09639946583e-09
4.32828099432e-05
-8.15039484263e-10
4.32829849174e-05
-5.91304390021e-10
4.32831177961e-05
-4.13665516093e-10
4.3283203026e-05
-2.68545614616e-10
4.32832570393e-05
-1.69364427756e-10
4.32832969597e-05
-1.08292019535e-10
4.32833215465e-05
-5.97058873133e-11
4.32833337467e-05
-2.21379497605e-11
4.32833369738e-05
5.06095356757e-12
4.32833331461e-05
2.54948640813e-11
4.32833238919e-05
4.09173908729e-11
4.32833104744e-05
5.29779504403e-11
4.32832935607e-05
6.32349049981e-11
4.32832735523e-05
7.25209916633e-11
4.32832508894e-05
8.14250968384e-11
4.3283225903e-05
9.02592937551e-11
4.32831989288e-05
9.9227903043e-11
4.32831706003e-05
1.08403438491e-10
4.32831415957e-05
1.17441158326e-10
4.32831128619e-05
1.25723188287e-10
4.32830858719e-05
1.32248187371e-10
4.32830627519e-05
1.35364661413e-10
4.3283046406e-05
1.3249097348e-10
4.32830411841e-05
1.195600015e-10
4.32830555966e-05
8.85367283711e-11
4.32831015275e-05
2.77994428453e-11
4.32831980278e-05
-7.97426555524e-11
4.32833614772e-05
-2.50933740349e-10
4.32836078207e-05
-5.23421033534e-10
4.32840549912e-05
-1.06386036415e-09
4.32848328163e-05
-1.82181107484e-09
4.32860931284e-05
-2.96790949829e-09
4.32880443861e-05
-4.72451905739e-09
4.32910368401e-05
-7.44247584963e-09
4.3295630345e-05
-1.16767381062e-08
4.33027036123e-05
-1.8302237124e-08
4.33136386752e-05
-2.87271635272e-08
4.33305930327e-05
-4.52526505107e-08
4.33568749042e-05
-7.16850275851e-08
4.33980525023e-05
-1.14390555869e-07
4.34629729123e-05
-1.84398647481e-07
4.35653520522e-05
-3.01350054946e-07
4.3725129489e-05
-5.00768007817e-07
4.39668757022e-05
-8.46851847103e-07
4.43072154024e-05
-1.44984714259e-06
4.47073909159e-05
-2.48281037862e-06
4.49264381216e-05
-4.19067244182e-06
-6.57511413261e-06
4.4396949332e-05
5.27351380801e-05
6.1734745837e-06
5.57309345883e-05
1.28850779761e-05
5.73114745246e-05
1.4695594627e-05
5.76109920867e-05
1.37529717837e-05
5.71335230123e-05
1.16346820696e-05
5.63194686116e-05
9.26506533122e-06
5.54489886016e-05
7.09364749085e-06
5.46629782402e-05
5.28287578049e-06
5.4013682913e-05
3.85198556946e-06
5.35061518587e-05
2.75992844474e-06
5.31242562693e-05
1.94680939322e-06
5.28449871017e-05
1.35287897128e-06
5.26454412671e-05
9.26021502517e-07
5.25057174467e-05
6.23727211733e-07
5.24097230941e-05
4.12677120328e-07
5.23450174816e-05
2.67450626623e-07
5.23022800084e-05
1.69041931715e-07
5.22746931507e-05
1.03476476979e-07
5.22573688428e-05
6.06302019811e-08
5.22468603389e-05
3.32676437368e-08
5.22407607634e-05
1.62907435137e-08
5.22374519543e-05
6.1829370992e-09
5.22359532958e-05
5.15685950371e-10
5.22354453139e-05
-2.423266904e-09
5.22355101902e-05
-3.68590031202e-09
5.22358555264e-05
-3.98259630347e-09
5.22363095973e-05
-3.76256799001e-09
5.22367757449e-05
-3.30028208366e-09
5.22372028611e-05
-2.75638615696e-09
5.22375682176e-05
-2.22096259445e-09
5.22378651194e-05
-1.738788834e-09
5.22380964109e-05
-1.32791083549e-09
5.22382723438e-05
-9.91248682098e-10
5.22384049121e-05
-7.24109157872e-10
5.2238505069e-05
-5.1396448022e-10
5.22385895988e-05
-3.53165516591e-10
5.22386550873e-05
-2.3482229101e-10
5.22386974761e-05
-1.50607152385e-10
5.22387303584e-05
-9.24157403532e-11
5.22387459092e-05
-3.75667026706e-11
5.22387512862e-05
-2.29417199056e-13
5.22387490346e-05
2.77830562258e-11
5.22387410154e-05
4.88046736036e-11
5.22387286656e-05
6.50754208864e-11
5.22387128291e-05
7.87408003098e-11
5.22386941047e-05
9.08793310123e-11
5.22386730124e-05
1.0213185846e-10
5.22386502844e-05
1.12625259284e-10
5.22386269789e-05
1.22211649314e-10
5.22386010875e-05
1.34006544897e-10
5.22385744017e-05
1.43889940048e-10
5.22385480339e-05
1.51888512015e-10
5.22385235663e-05
1.56517194972e-10
5.22385037241e-05
1.55078854218e-10
5.22384942199e-05
1.42018654223e-10
5.22385034559e-05
1.10114354209e-10
5.22385354306e-05
5.6320465229e-11
5.22386136266e-05
-5.0591075665e-11
5.22387348349e-05
-2.0146321771e-10
5.22389321311e-05
-4.485959069e-10
5.22392715662e-05
-8.6336726384e-10
5.22397927881e-05
-1.58543509237e-09
5.22405699897e-05
-2.59929873128e-09
5.22417362277e-05
-4.13439650175e-09
5.22434950576e-05
-6.48344454665e-09
5.22461478062e-05
-1.00952550859e-08
5.22501465696e-05
-1.56754958965e-08
5.22561827069e-05
-2.43383392417e-08
5.22653152094e-05
-3.78596354779e-08
5.2279161477e-05
-5.90989439175e-08
5.23001791132e-05
-9.2702757453e-08
5.23320832434e-05
-1.46294816989e-07
5.23802160022e-05
-2.32531549797e-07
5.24515007933e-05
-3.7263497383e-07
5.25527965208e-05
-6.02063837606e-07
5.26846414024e-05
-9.78696842288e-07
5.28248027861e-05
-1.59000855108e-06
5.28917948039e-05
-2.5498020441e-06
5.26731812252e-05
-3.97205753614e-06
-5.76625288154e-06
5.18643188193e-05
5.19834865452e-05
4.18998810024e-06
5.50586641191e-05
9.80990046322e-06
5.76386134609e-05
1.2115645395e-05
5.93259034618e-05
1.20656818505e-05
6.02280155597e-05
1.07325700551e-05
6.0592926794e-05
8.90015417477e-06
6.06482837676e-05
7.03829060482e-06
6.05531893749e-05
5.37797027741e-06
6.04029548842e-05
4.00222018426e-06
6.02479144911e-05
2.91496899133e-06
6.0110789112e-05
2.08393496081e-06
5.99990297735e-05
1.46463852597e-06
5.99125148005e-05
1.01253669953e-06
5.98479230997e-05
6.8831911967e-07
5.98010197135e-05
4.59580713287e-07
5.97677352067e-05
3.00735303917e-07
5.97445939394e-05
1.92183315356e-07
5.97288154389e-05
1.19255055612e-07
5.97182672861e-05
7.11783878065e-08
5.97113610587e-05
4.01738724507e-08
5.97069416678e-05
2.0710133129e-08
5.97042077371e-05
8.91687824738e-09
5.97025986856e-05
2.12476686769e-09
5.97016941543e-05
-1.51868147125e-09
5.97012358728e-05
-3.22755187495e-09
5.97010463509e-05
-3.79302780709e-09
5.97010100429e-05
-3.72624242369e-09
5.9701054271e-05
-3.34454133114e-09
5.97011353007e-05
-2.83750893461e-09
5.97012274589e-05
-2.31327604196e-09
5.97013168814e-05
-1.82841465661e-09
5.97013969857e-05
-1.40824434872e-09
5.97014663649e-05
-1.06085291122e-09
5.97015256324e-05
-7.83601653351e-10
5.97015756783e-05
-5.64122690571e-10
5.97016153804e-05
-3.92883937404e-10
5.97016431433e-05
-2.62567645047e-10
5.97016585138e-05
-1.65836281526e-10
5.9701657037e-05
-9.08019159666e-11
5.97016491798e-05
-2.96227771761e-11
5.97016427822e-05
6.21628639244e-12
5.97016337992e-05
3.6800163876e-11
5.97016232401e-05
5.91376267064e-11
5.97016116672e-05
7.64487370383e-11
5.97015978223e-05
9.22871781201e-11
5.97015815987e-05
1.06768375367e-10
5.97015630788e-05
1.20286299982e-10
5.97015423316e-05
1.33041145002e-10
5.97015192469e-05
1.4498665311e-10
5.970149714e-05
1.55847531973e-10
5.97014759405e-05
1.6486679613e-10
5.97014569028e-05
1.70738877805e-10
5.97014416533e-05
1.71565690726e-10
5.97014317061e-05
1.64882862166e-10
5.97014261719e-05
1.47520821494e-10
5.9701416684e-05
1.19097057214e-10
5.97014226735e-05
5.01593530337e-11
5.9701435219e-05
-6.31569773922e-11
5.97015222675e-05
-2.889507888e-10
5.97017134542e-05
-6.40187171512e-10
5.97020153211e-05
-1.16554928629e-09
5.97024049649e-05
-1.97542827238e-09
5.97029870985e-05
-3.18164130465e-09
5.97038440801e-05
-4.99155425659e-09
5.97050901028e-05
-7.72955290821e-09
5.97068903391e-05
-1.18954920633e-08
5.97094829681e-05
-1.8268118339e-08
5.9713212172e-05
-2.8067538401e-08
5.97185678435e-05
-4.32153059848e-08
5.97262307743e-05
-6.67619226251e-08
5.97371023089e-05
-1.03574410838e-07
5.97522447571e-05
-1.61437410996e-07
5.97724952973e-05
-2.52782216413e-07
5.97972614329e-05
-3.97401175192e-07
5.9821385605e-05
-6.2618799219e-07
5.98279929544e-05
-9.85304167324e-07
5.97750476363e-05
-1.53706328333e-06
5.95746452135e-05
-2.3493995731e-06
5.90690045211e-05
-3.46641580295e-06
-4.79524383704e-06
5.80979950355e-05
5.14373054482e-05
2.75268272642e-06
5.4265820725e-05
6.98138526216e-06
5.72496434972e-05
9.13182274794e-06
5.97900278958e-05
9.52529752731e-06
6.17201284337e-05
8.80246960543e-06
6.30883034082e-05
7.53197927723e-06
6.40167169972e-05
6.10987709759e-06
6.46292368405e-05
4.76545053076e-06
6.5025803866e-05
3.60565327353e-06
6.52790785386e-05
2.66169445902e-06
6.54389737226e-05
1.92403995349e-06
6.55386907296e-05
1.36492173527e-06
6.55999294714e-05
9.51298194714e-07
6.56367444886e-05
6.51504319941e-07
6.56581957883e-05
4.38129614501e-07
6.56701041891e-05
2.88827070734e-07
6.56761935643e-05
1.86094057758e-07
6.5678829975e-05
1.16618723594e-07
6.56795004853e-05
7.05079236396e-08
6.56791243286e-05
4.05500505517e-08
6.56782569796e-05
2.15775014677e-08
6.56772261203e-05
9.9477686991e-09
6.56762169437e-05
3.13399170661e-09
6.56753077514e-05
-6.09422837574e-10
6.56745391639e-05
-2.45888227589e-09
6.56739109049e-05
-3.16469537005e-09
6.56734120774e-05
-3.22738298969e-09
6.56730252069e-05
-2.95769109914e-09
6.56727312879e-05
-2.54368397904e-09
6.56725121573e-05
-2.09431435932e-09
6.56723517173e-05
-1.66819038496e-09
6.56722363164e-05
-1.29307383648e-09
6.56721538613e-05
-9.78593290525e-10
6.56720937305e-05
-7.23656659505e-10
6.56720502045e-05
-5.20722911326e-10
6.56720190774e-05
-3.61762606733e-10
6.5671994178e-05
-2.37626624482e-10
6.56719728361e-05
-1.44406135371e-10
6.56719581202e-05
-7.59652307908e-11
6.5671956574e-05
-2.80087708006e-11
6.56719551998e-05
7.62045810853e-12
6.5671947858e-05
4.4004148737e-11
6.56719380893e-05
6.88777506736e-11
6.56719255519e-05
8.86974673055e-11
6.56719114523e-05
1.06069854901e-10
6.56718958499e-05
1.22055363675e-10
6.56718785923e-05
1.37195635329e-10
6.56718596323e-05
1.51643828647e-10
6.56718395035e-05
1.64817888994e-10
6.56718202895e-05
1.74817441376e-10
6.5671800942e-05
1.84026169075e-10
6.56717819727e-05
1.89560346073e-10
6.56717644968e-05
1.88875843292e-10
6.56717503424e-05
1.78775307865e-10
6.56717433203e-05
1.54472510167e-10
6.56717524988e-05
1.10208236708e-10
6.56717574646e-05
4.43415463821e-11
6.56717931374e-05
-9.87930380568e-11
6.56718615393e-05
-3.57397868537e-10
6.56719612732e-05
-7.40376579501e-10
6.56721136554e-05
-1.31822797853e-09
6.56723255433e-05
-2.18767972187e-09
6.56726138427e-05
-3.47014597608e-09
6.56729952323e-05
-5.3730213735e-09
6.56734808297e-05
-8.21517389041e-09
6.56740685399e-05
-1.24831562477e-08
6.56747284665e-05
-1.89279970675e-08
6.56753754501e-05
-2.87145037133e-08
6.56758092109e-05
-4.36490603906e-08
6.56756029692e-05
-6.65557153204e-08
6.56738884274e-05
-1.01859977923e-07
6.56689334526e-05
-1.56482587252e-07
6.56572065693e-05
-2.41055460678e-07
6.56315833719e-05
-3.71778029946e-07
6.55779201175e-05
-5.72524673083e-07
6.54689972433e-05
-8.76381137399e-07
6.52556724114e-05
-1.3237383755e-06
6.4857945566e-05
-1.95167268024e-06
6.41634286695e-05
-2.77189815088e-06
-3.71386364553e-06
6.30820484296e-05
5.10850424427e-05
1.66764037091e-06
5.36118447192e-05
4.45458307204e-06
5.66873167632e-05
6.0563508418e-06
5.96894468378e-05
6.52316753409e-06
6.22997275147e-05
6.1921890183e-06
6.44136891292e-05
5.41801773706e-06
6.60471853271e-05
4.47638097448e-06
6.72686169514e-05
3.54401899481e-06
6.81598960983e-05
2.71437423082e-06
6.87977628514e-05
2.02382783138e-06
6.9246747438e-05
1.47505552252e-06
6.95579665444e-05
1.05370282159e-06
6.97704335401e-05
7.38831411269e-07
6.99131769503e-05
5.08761118294e-07
7.00073884317e-05
3.43918327273e-07
7.00682983828e-05
2.27917287797e-07
7.01067007893e-05
1.47691776385e-07
7.01301434501e-05
9.31761487703e-08
7.01438329057e-05
5.68185243868e-08
7.01513093119e-05
3.3073681746e-08
7.01549420816e-05
1.79447676995e-08
7.01562901548e-05
8.59974392226e-09
7.01563623411e-05
3.06186705886e-09
7.01557705975e-05
-1.75935488903e-11
7.01549100342e-05
-1.59823597676e-09
7.01539867186e-05
-2.24131359095e-09
7.01531183428e-05
-2.35897920634e-09
7.01523585552e-05
-2.19792608913e-09
7.0151724542e-05
-1.90976170687e-09
7.01512134571e-05
-1.58337185976e-09
7.01508123859e-05
-1.26730834831e-09
7.01505043842e-05
-9.85299779421e-10
7.01502718688e-05
-7.46275983356e-10
7.01500986786e-05
-5.50632670703e-10
7.0149971846e-05
-3.94004268681e-10
7.01498807391e-05
-2.70705946673e-10
7.01498182473e-05
-1.75108385319e-10
7.01497768941e-05
-1.02981889485e-10
7.01497486247e-05
-4.76165893837e-11
7.0149718944e-05
1.78548058047e-12
7.01496957503e-05
3.08278577445e-11
7.01496828408e-05
5.68657753013e-11
7.01496724503e-05
7.91416164815e-11
7.01496625782e-05
9.83699337952e-11
7.01496525244e-05
1.15873328646e-10
7.01496419431e-05
1.32375286456e-10
7.01496307175e-05
1.48175020599e-10
7.01496188844e-05
1.63233105262e-10
7.01496063386e-05
1.77160555288e-10
7.01495916818e-05
1.8932840668e-10
7.01495768185e-05
1.98807245331e-10
7.0149562615e-05
2.03781355341e-10
7.01495498531e-05
2.01765232745e-10
7.01495388492e-05
1.89682738155e-10
7.01495293662e-05
1.63951079036e-10
7.01495184405e-05
1.20851379929e-10
7.014951254e-05
5.0358921662e-11
7.01495010159e-05
-8.77360756582e-11
7.01495133029e-05
-3.69827468648e-10
7.01495371665e-05
-7.64723517412e-10
7.01495614856e-05
-1.34291895933e-09
7.0149564803e-05
-2.19139162253e-09
7.01495205528e-05
-3.42616824235e-09
7.01493756179e-05
-5.22816576604e-09
7.01490311631e-05
-7.8706647873e-09
7.01483122092e-05
-1.17640993785e-08
7.01469173393e-05
-1.75330296494e-08
7.01443354253e-05
-2.6132568705e-08
7.01396930947e-05
-3.90067415477e-08
7.01315102064e-05
-5.83728722929e-08
7.01172984719e-05
-8.76483444537e-08
7.00929059135e-05
-1.32090177486e-07
7.00512476218e-05
-1.99397290897e-07
6.99803572078e-05
-3.00887657122e-07
6.98602812427e-05
-4.52448594176e-07
6.96585959532e-05
-6.74695572629e-07
6.93254221226e-05
-9.90564338471e-07
6.8791265699e-05
-1.41751611675e-06
6.79736237181e-05
-1.95425557131e-06
-2.55476920381e-06
6.68145294287e-05
5.08804132822e-05
7.87227188536e-07
5.3170466355e-05
2.16453009454e-06
5.62177500444e-05
3.00906729931e-06
5.94382701166e-05
3.30264754797e-06
6.24449700009e-05
3.18548922391e-06
6.50382534636e-05
2.82473434534e-06
6.71548670711e-05
2.35976743204e-06
6.88135656144e-05
1.88532052799e-06
7.00731716825e-05
1.45476825479e-06
7.10056687369e-05
1.09133088821e-06
7.16812651524e-05
7.99459244382e-07
7.21614246745e-05
5.73543475514e-07
7.24966057961e-05
4.03650489177e-07
7.27264825511e-05
2.78884566376e-07
7.28812816411e-05
1.89119429845e-07
7.29834715687e-05
1.25727533591e-07
7.30494154883e-05
8.17479936698e-08
7.30908176978e-05
5.17740402995e-08
7.31159117125e-05
3.17245805932e-08
7.31303962757e-05
1.85891695616e-08
7.31381510291e-05
1.01900611897e-08
7.31417715044e-05
4.97932401961e-09
7.31429592591e-05
1.87418248646e-09
7.31428129375e-05
1.2879447716e-10
7.31419897785e-05
-7.74991745018e-10
7.31409069374e-05
-1.15840709551e-09
7.313979211e-05
-1.24411682287e-09
7.31387646924e-05
-1.17051445941e-09
7.31378771249e-05
-1.0222676761e-09
7.31371433174e-05
-8.49705684091e-10
7.31365559132e-05
-6.80077578504e-10
7.31360975227e-05
-5.27125335227e-10
7.31357473291e-05
-3.9628217399e-10
7.31354847267e-05
-2.88187608257e-10
7.31352913765e-05
-2.00767003306e-10
7.31351516704e-05
-1.31040350737e-10
7.31350523663e-05
-7.5761568849e-11
7.31349808963e-05
-3.14370577734e-11
7.31349278626e-05
5.47453411208e-12
7.31348982632e-05
3.1491101474e-11
7.31348752509e-05
5.38150775817e-11
7.31348584953e-05
7.35194892956e-11
7.31348461363e-05
9.13457912937e-11
7.31348363564e-05
1.07954278188e-10
7.31348279122e-05
1.24078123254e-10
7.3134819947e-05
1.40079001865e-10
7.31348118795e-05
1.56002662052e-10
7.31348032819e-05
1.71609391425e-10
7.3134793916e-05
1.86349410795e-10
7.31347837681e-05
1.99358318585e-10
7.31347728862e-05
2.09604245025e-10
7.31347613573e-05
2.15284834018e-10
7.31347493981e-05
2.1380108542e-10
7.31347369929e-05
2.01881644865e-10
7.31347250779e-05
1.75739112525e-10
7.31347153964e-05
1.30826085903e-10
7.3134697854e-05
6.70371848531e-11
7.31346756141e-05
-6.57567880956e-11
7.31346347116e-05
-3.29328942614e-10
7.31345693381e-05
-6.99725715773e-10
7.31344560575e-05
-1.22998873676e-09
7.31342515688e-05
-1.98730756634e-09
7.31338880557e-05
-3.06293386843e-09
7.31332506824e-05
-4.5909538179e-09
7.31321466169e-05
-6.76659241465e-09
7.31302542219e-05
-9.87162966469e-09
7.31270461014e-05
-1.43248049456e-08
7.3121667506e-05
-2.07539861189e-08
7.31127066002e-05
-3.00459066463e-08
7.30978596132e-05
-4.35259851167e-08
7.30734198344e-05
-6.32086782742e-08
7.3033492075e-05
-9.21625538138e-08
7.29685665466e-05
-1.34471852398e-07
7.28636308355e-05
-1.95951963876e-07
7.26955266048e-05
-2.84344247306e-07
7.24297659338e-05
-4.08934569191e-07
7.20180061312e-05
-5.78804205349e-07
7.13990780694e-05
-7.98587817987e-07
7.05074709065e-05
-1.06264788976e-06
-1.3459091229e-06
6.92986110869e-05
5.07871726961e-05
5.4601914795e-11
5.29516500436e-05
5.28502771085e-11
5.59606887966e-05
2.87013601054e-11
5.92633223201e-05
1.41146165056e-11
6.24488089228e-05
2.71096962701e-12
6.52735494603e-05
-6.11849652815e-12
6.76333289568e-05
-1.1998067241e-11
6.95186644895e-05
-1.49287467834e-11
7.09734481926e-05
-1.53549811322e-11
7.20647930681e-05
-1.38728890931e-11
7.28642635631e-05
-1.11122566571e-11
7.34378149324e-05
-7.72408168854e-12
7.38414699921e-05
-4.37360913582e-12
7.41203564712e-05
-1.7070106671e-12
7.43094763919e-05
-2.98471387305e-13
7.44352046524e-05
-5.49924986294e-13
7.45169555063e-05
-2.71353759108e-12
7.4568736202e-05
-6.54071430424e-12
7.46004722595e-05
-1.13907151789e-11
7.4619077776e-05
-1.62813118222e-11
7.46292879774e-05
-2.00838533185e-11
7.46342890679e-05
-2.17109146492e-11
7.46361840169e-05
-2.06975034653e-11
7.46363312119e-05
-1.83301996277e-11
7.46355720776e-05
-1.5786213109e-11
7.46344263744e-05
-1.26476525692e-11
7.4633191343e-05
-9.07679029263e-12
7.46320259212e-05
-5.13370279308e-12
7.46310039102e-05
-3.30528836222e-13
7.46301503911e-05
3.67035682777e-12
7.46294618638e-05
8.28069743135e-12
7.46289213461e-05
1.32033229773e-11
7.46285064731e-05
1.84143579339e-11
7.46281941946e-05
2.39793171106e-11
7.46279632921e-05
3.00688721811e-11
7.46277954357e-05
3.68035934919e-11
7.46276754713e-05
4.42597587002e-11
7.46275916716e-05
5.23827043669e-11
7.46275359505e-05
6.12259240124e-11
7.46274970197e-05
7.04274076742e-11
7.46274709284e-05
7.98929339146e-11
7.46274538056e-05
9.05578373345e-11
7.46274426778e-05
1.02338067636e-10
7.46274353202e-05
1.15142208579e-10
7.46274301996e-05
1.28990497596e-10
7.46274262652e-05
1.43780408841e-10
7.46274228026e-05
1.59248035065e-10
7.46274192847e-05
1.74940784505e-10
7.4627415305e-05
1.90185882645e-10
7.46274105242e-05
2.04046771661e-10
7.46274047433e-05
2.15319601649e-10
7.46273977075e-05
2.22249290614e-10
7.46273891644e-05
2.22411278906e-10
7.46273783275e-05
2.12751326222e-10
7.46273638002e-05
1.89925789599e-10
7.4627344536e-05
1.5015176458e-10
7.46273189811e-05
9.24105780351e-11
7.4627273408e-05
-2.05204964522e-11
7.46271855481e-05
-2.41912413486e-10
7.46270502375e-05
-5.64669798291e-10
7.46268279664e-05
-1.00781791672e-09
7.4626457909e-05
-1.61752244778e-09
7.46258439766e-05
-2.44924038066e-09
7.46248295443e-05
-3.57667243083e-09
7.46231596971e-05
-5.09679371431e-09
7.46204180131e-05
-7.12996091032e-09
7.4615937691e-05
-9.84441219017e-09
7.46086614757e-05
-1.34778123874e-08
7.45968540975e-05
-1.82386618921e-08
7.4577716178e-05
-2.43882084397e-08
7.45468300828e-05
-3.23226853763e-08
7.44974708051e-05
-4.28033083952e-08
7.44189077994e-05
-5.59088584887e-08
7.42947514719e-05
-7.17956139488e-08
7.41006360947e-05
-9.02287547727e-08
7.38017642495e-05
-1.10062416919e-07
7.33515025933e-05
-1.28542163131e-07
7.26934174334e-05
-1.40502344515e-07
7.1769530002e-05
-1.38759985463e-07
-1.14830539041e-07
7.05384517358e-05
5.07871716664e-05
-7.87116948093e-07