/*--------------------------------*- C++ -*----------------------------------*\
| =========                 |                                                 |
| \\      /  F ield         | OpenFOAM: The Open Source CFD Toolbox           |
|  \\    /   O peration     | Version:  2106                                  |
|   \\  /    A nd           | Website:  www.openfoam.com                      |
|    \\/     M anipulation  |                                                 |
\*---------------------------------------------------------------------------*/
FoamFile
{
    version     2.0;
    format      ascii;
    arch        "LSB;label=32;scalar=64";
    class       volVectorField;
    location    "0.405";
    object      U;
}
// * * * * * * * * * * * * * * * * * * * * * * * * * * * * * * * * * * * * * //

dimensions      [0 1 -1 0 0 0 0];

internalField   nonuniform List<vector> 
11200
(
(0.66246240599 0.150569441757 0)
(0.558948681486 0.103243387486 0)
(0.383850753336 0.0513512231543 0)
(0.283747619811 0.0248708540472 0)
(0.23207530352 0.0124170438839 0)
(0.201908629504 0.00662281539965 0)
(0.183197985289 0.00380291292667 0)
(0.17127655071 0.00231586849196 0)
(0.163510378291 0.00146450488694 0)
(0.158388851558 0.000944890655985 0)
(0.155006722963 0.000615175072732 0)
(0.152786778133 0.000402231943974 0)
(0.151346638133 0.000264230339039 0)
(0.150428410969 0.000175248327245 0)
(0.149856816067 0.000118358982124 0)
(0.149512623357 8.2158417037e-05 0)
(0.149315070375 5.88643306044e-05 0)
(0.149209714536 4.33140511133e-05 0)
(0.149159858813 3.29325384291e-05 0)
(0.149142620942 2.81847907119e-05 0)
(0.149144777183 2.7682720955e-05 0)
(0.149157051248 2.98884457389e-05 0)
(0.149172670209 3.30487916299e-05 0)
(0.149188214217 3.59644204063e-05 0)
(0.149202418978 3.8600104806e-05 0)
(0.149214684569 4.10394120709e-05 0)
(0.149224842882 4.33169915317e-05 0)
(0.149233000353 4.54639898071e-05 0)
(0.149239393377 4.75195431228e-05 0)
(0.149244303759 4.95305699083e-05 0)
(0.149248016586 5.15591278946e-05 0)
(0.149250799374 5.36967500803e-05 0)
(0.149252849762 5.60253928268e-05 0)
(0.149254338938 5.84066006052e-05 0)
(0.149255399648 6.07675066261e-05 0)
(0.149256119081 6.30885659013e-05 0)
(0.149256595029 6.53797106786e-05 0)
(0.149256910618 6.76542181735e-05 0)
(0.149257118988 6.99238454247e-05 0)
(0.149257249128 7.21945635063e-05 0)
(0.149257321093 7.44674969222e-05 0)
(0.149257351052 7.67435450041e-05 0)
(0.14925735069 7.90222247308e-05 0)
(0.14925732842 8.1302212361e-05 0)
(0.149257290283 8.35819964967e-05 0)
(0.149257241707 8.5859212812e-05 0)
(0.149257187355 8.81309644073e-05 0)
(0.149257131765 9.03944386256e-05 0)
(0.149257080167 9.26465129671e-05 0)
(0.149257038068 9.48841616116e-05 0)
(0.149257012426 9.71043955084e-05 0)
(0.149257013126 9.93043327926e-05 0)
(0.149257053462 0.000101480862712 0)
(0.149257151327 0.000103630562758 0)
(0.149257332118 0.000105748985475 0)
(0.149257632075 0.000107830191348 0)
(0.149258102529 0.000109866779056 0)
(0.14925881764 0.000111850200851 0)
(0.149259888991 0.000113766923911 0)
(0.149261475984 0.00011559089358 0)
(0.149263824222 0.000117267583417 0)
(0.149267343882 0.000118714144705 0)
(0.149272502875 0.000119970955365 0)
(0.149279949483 0.0001212326856 0)
(0.149290717871 0.000122963842822 0)
(0.149306329275 0.000125338687722 0)
(0.149329173087 0.000128118905431 0)
(0.149362944566 0.000131078788693 0)
(0.149413235017 0.000134003688414 0)
(0.149488273581 0.000136780636271 0)
(0.149599995339 0.000140689086295 0)
(0.149771240538 0.000151556213928 0)
(0.150039770678 0.00017227701331 0)
(0.150468731617 0.00020251943499 0)
(0.151193914864 0.000232436569481 0)
(0.152492938994 0.000191634864914 0)
(0.155021898368 -0.000216757486355 0)
(0.162374961326 -0.00210989325531 0)
(0.187702004548 -0.0107875726318 0)
(0.204354703493 -0.0496548803923 0)
(0.965408256823 0.289214704466 0)
(0.96196286648 0.252656037286 0)
(0.823574403083 0.159021438657 0)
(0.698139384476 0.0959957280851 0)
(0.610225483717 0.0582481109446 0)
(0.548971515743 0.0362148499499 0)
(0.506588916631 0.0231612818925 0)
(0.477567300182 0.0151375120686 0)
(0.457745526346 0.0100177518906 0)
(0.444228498875 0.00665813789044 0)
(0.435053340657 0.00441555298179 0)
(0.428873164575 0.00290686255153 0)
(0.42475425293 0.00189105506202 0)
(0.422046707711 0.00121004192271 0)
(0.420297875135 0.000757159985046 0)
(0.419193270104 0.000459252384975 0)
(0.418515668406 0.000265851064481 0)
(0.418116523803 0.000142395794362 0)
(0.417895921729 6.61054156842e-05 0)
(0.417786871332 2.30885358851e-05 0)
(0.417745456425 1.40370341492e-06 0)
(0.417742178652 -1.01671634565e-05 0)
(0.417756776423 -1.37186119161e-05 0)
(0.417778735713 -1.32718747956e-05 0)
(0.417803031199 -1.08391695243e-05 0)
(0.417826403549 -7.49548427662e-06 0)
(0.417847159054 -3.87841601593e-06 0)
(0.417864698427 -3.57996864318e-07 0)
(0.417879025117 2.8641974362e-06 0)
(0.417890454395 5.68404896576e-06 0)
(0.417899458528 8.03693632297e-06 0)
(0.417906530231 9.83790291506e-06 0)
(0.417911871527 1.10059943701e-05 0)
(0.417915718246 1.18574571323e-05 0)
(0.417918448287 1.26796641294e-05 0)
(0.417920336706 1.34366133022e-05 0)
(0.417921627227 1.41102637093e-05 0)
(0.417922511091 1.47251737391e-05 0)
(0.417923113545 1.5310815743e-05 0)
(0.417923505935 1.58804343641e-05 0)
(0.417923740184 1.64343498437e-05 0)
(0.417923858428 1.69775759742e-05 0)
(0.417923890879 1.75136482621e-05 0)
(0.417923860091 1.80454093702e-05 0)
(0.417923782206 1.85764036183e-05 0)
(0.417923669893 1.9109300748e-05 0)
(0.417923534587 1.96455011969e-05 0)
(0.417923387385 2.01873098678e-05 0)
(0.41792324061 2.07367727989e-05 0)
(0.417923108312 2.12958812179e-05 0)
(0.41792300852 2.18647674712e-05 0)
(0.417922966198 2.24438411451e-05 0)
(0.417923015344 2.30329198857e-05 0)
(0.417923202322 2.36316653963e-05 0)
(0.417923591996 2.42394751093e-05 0)
(0.417924276914 2.48553027463e-05 0)
(0.41792539056 2.54748621449e-05 0)
(0.417927125584 2.60886720687e-05 0)
(0.417929760157 2.66800302771e-05 0)
(0.417933687218 2.72146885595e-05 0)
(0.417939511056 2.76444494536e-05 0)
(0.417948330919 2.79230632964e-05 0)
(0.417961633509 2.82095633984e-05 0)
(0.417981560801 2.77454112497e-05 0)
(0.418010872582 2.51202858296e-05 0)
(0.418053177128 1.92797905119e-05 0)
(0.418114675091 9.41460372624e-06 0)
(0.418205485026 -6.0102757053e-06 0)
(0.418341205917 -2.95186121082e-05 0)
(0.418546729583 -6.47900857003e-05 0)
(0.418863947301 -0.000116013984844 0)
(0.419362443598 -0.000188156570907 0)
(0.420155668563 -0.000307931656757 0)
(0.421447253458 -0.000532890931644 0)
(0.423628785413 -0.000999834628838 0)
(0.427418842393 -0.0020904087353 0)
(0.43423934934 -0.00485603115417 0)
(0.448264804473 -0.0122528976233 0)
(0.47464139767 -0.0342386711846 0)
(0.478158471051 -0.0987609274291 0)
(1.02222096771 0.238416183904 0)
(1.08213753602 0.295926648671 0)
(1.03447723646 0.239503062358 0)
(0.954615422969 0.174290160388 0)
(0.87999207298 0.121345464404 0)
(0.818614456496 0.0830993802198 0)
(0.771410875052 0.0567316633876 0)
(0.736634419063 0.038740964987 0)
(0.711624465371 0.0264327836455 0)
(0.69391665857 0.0179731014842 0)
(0.681541454459 0.0121424448296 0)
(0.673000168083 0.00812490515395 0)
(0.667180709297 0.00536631799683 0)
(0.663271745518 0.00348444160275 0)
(0.660688579964 0.00221255815973 0)
(0.659014260353 0.00136337819311 0)
(0.657954583264 0.000805239995938 0)
(0.657304292777 0.000445912436752 0)
(0.65692187503 0.00022106424142 0)
(0.656710309277 8.55764662641e-05 0)
(0.656603443709 8.35299771271e-06 0)
(0.656561893023 -3.37246685539e-05 0)
(0.656557990932 -5.68588954532e-05 0)
(0.656571465023 -6.68776038711e-05 0)
(0.656592993252 -6.84844231678e-05 0)
(0.656616811966 -6.55622618016e-05 0)
(0.656639613589 -6.05505749798e-05 0)
(0.656659790811 -5.48600017788e-05 0)
(0.656676757916 -4.92750030376e-05 0)
(0.656690492388 -4.42026369662e-05 0)
(0.656701240349 -3.98379758939e-05 0)
(0.656709386993 -3.63002224619e-05 0)
(0.656715628887 -3.36939112114e-05 0)
(0.656720657539 -3.18552816218e-05 0)
(0.656724515969 -3.08105454661e-05 0)
(0.656727218151 -3.03041815273e-05 0)
(0.65672907855 -3.02491729964e-05 0)
(0.656730376773 -3.05603138013e-05 0)
(0.656731279126 -3.10877411295e-05 0)
(0.656731874889 -3.17491115426e-05 0)
(0.656732237769 -3.25155584929e-05 0)
(0.656732432082 -3.33518357805e-05 0)
(0.656732502301 -3.42332766395e-05 0)
(0.656732482609 -3.51413835427e-05 0)
(0.656732398078 -3.60603885901e-05 0)
(0.656732267237 -3.69786959954e-05 0)
(0.656732107032 -3.7889327092e-05 0)
(0.65673193442 -3.87864852472e-05 0)
(0.656731767146 -3.96654837698e-05 0)
(0.656731623891 -4.05208778904e-05 0)
(0.656731529377 -4.13496131002e-05 0)
(0.656731519387 -4.2147286825e-05 0)
(0.656731643108 -4.2912316647e-05 0)
(0.656731969134 -4.36483893223e-05 0)
(0.656732594269 -4.43691495098e-05 0)
(0.656733653996 -4.51050587409e-05 0)
(0.656735339577 -4.59148057025e-05 0)
(0.656737930311 -4.68918341758e-05 0)
(0.656741833366 -4.81581473396e-05 0)
(0.65674764866 -4.99392853534e-05 0)
(0.656756315701 -5.27490069947e-05 0)
(0.656769483657 -5.75754817215e-05 0)
(0.656788454805 -6.52352704035e-05 0)
(0.656814675863 -7.65832044758e-05 0)
(0.656852016342 -9.33224878631e-05 0)
(0.65690718494 -0.000117840597366 0)
(0.656989551295 -0.00015334250581 0)
(0.657112911129 -0.000205117560057 0)
(0.657299081551 -0.000281685541525 0)
(0.657583455087 -0.000396919245321 0)
(0.658024157255 -0.000575164928603 0)
(0.658710372635 -0.00086368220706 0)
(0.659789137966 -0.00135252856555 0)
(0.661517958008 -0.00221479209927 0)
(0.66433892319 -0.00381295483342 0)
(0.668947655747 -0.0069456913902 0)
(0.676369807782 -0.013351386355 0)
(0.688612826151 -0.0268405607588 0)
(0.70523509423 -0.0563127361878 0)
(0.700483496957 -0.113068676201 0)
(1.02251475671 0.170807149009 0)
(1.10138976312 0.276496474456 0)
(1.11752427046 0.266664795183 0)
(1.09214661807 0.219901695072 0)
(1.05187817127 0.168168843861 0)
(1.01020824184 0.123567393043 0)
(0.973494709915 0.0888375180995 0)
(0.943864576704 0.0630063683376 0)
(0.921142822052 0.0442232011467 0)
(0.904284097433 0.0307423900537 0)
(0.892074896496 0.0211562916162 0)
(0.883404542123 0.0143954661572 0)
(0.877352706524 0.00966794590787 0)
(0.873197748336 0.00639383484662 0)
(0.870392976097 0.00415116221255 0)
(0.868534091258 0.00263448784604 0)
(0.867327697214 0.00162401386356 0)
(0.866564295668 0.000962671640103 0)
(0.866096538601 0.000539117475346 0)
(0.865822295651 0.000275148244587 0)
(0.865671450606 0.000117062791181 0)
(0.865595198575 2.87871802135e-05 0)
(0.865564139428 -1.9329487275e-05 0)
(0.865561330716 -4.12652889186e-05 0)
(0.865572674523 -4.76687304043e-05 0)
(0.865589681128 -4.55273710984e-05 0)
(0.865607991258 -3.91571931947e-05 0)
(0.865625330562 -3.11457700229e-05 0)
(0.86564061478 -2.29642544296e-05 0)
(0.865653476625 -1.53802401667e-05 0)
(0.865663947662 -8.72230223367e-06 0)
(0.865672231914 -3.04280968853e-06 0)
(0.865678581743 1.73614146145e-06 0)
(0.86568320452 5.46746192987e-06 0)
(0.865686520528 8.03281133861e-06 0)
(0.865688917777 9.78907746876e-06 0)
(0.865690550004 1.11430871356e-05 0)
(0.865691714504 1.22881894855e-05 0)
(0.865692585867 1.32571229306e-05 0)
(0.8656931817 1.41435951909e-05 0)
(0.865693549657 1.4938145911e-05 0)
(0.865693753766 1.56636039921e-05 0)
(0.865693831697 1.63359155311e-05 0)
(0.865693815167 1.69708889187e-05 0)
(0.865693727578 1.75836052734e-05 0)
(0.865693584953 1.818434916e-05 0)
(0.865693403015 1.87809199456e-05 0)
(0.865693199458 1.93792325837e-05 0)
(0.865692995453 1.99872266676e-05 0)
(0.865692814221 2.06142587144e-05 0)
(0.865692686569 2.12453892623e-05 0)
(0.865692654494 2.18678331388e-05 0)
(0.86569277119 2.24648743874e-05 0)
(0.865693106931 2.30100691628e-05 0)
(0.865693756284 2.34680642478e-05 0)
(0.865694848587 2.38063678017e-05 0)
(0.865696571399 2.39783208884e-05 0)
(0.86569922092 2.38659240595e-05 0)
(0.865703197021 2.33275838518e-05 0)
(0.865708915334 2.19456868056e-05 0)
(0.865716863478 1.91562823142e-05 0)
(0.86572865444 1.42400088508e-05 0)
(0.865746873158 5.37575018686e-06 0)
(0.865774496828 -9.01285892912e-06 0)
(0.865815390818 -3.09276101585e-05 0)
(0.865875482611 -6.43367510572e-05 0)
(0.86596411312 -0.000116111692146 0)
(0.866095797899 -0.000197011891061 0)
(0.86629308603 -0.000324293618344 0)
(0.866590792895 -0.000526424310014 0)
(0.867042513922 -0.000852337763986 0)
(0.867733297015 -0.00138894928497 0)
(0.868799459896 -0.00228498943568 0)
(0.87045419769 -0.00381498053519 0)
(0.873016289315 -0.00650305146036 0)
(0.876884449149 -0.011358398326 0)
(0.882380897776 -0.0202497101791 0)
(0.889688432827 -0.0364469709928 0)
(0.896361555501 -0.0654808569206 0)
(0.88652983375 -0.110022228776 0)
(1.01287875283 0.11896101994 0)
(1.0882067127 0.23180693317 0)
(1.13741367887 0.253106761239 0)
(1.1540908776 0.228992750634 0)
(1.14994212111 0.188368356384 0)
(1.1353846685 0.146579841859 0)
(1.11758896326 0.110150963801 0)
(1.10059501888 0.0808162204209 0)
(1.08612459012 0.0582265749049 0)
(1.07459094606 0.0413189836572 0)
(1.06579149164 0.0289160189505 0)
(1.05928801797 0.019960098687 0)
(1.05459979738 0.0135815587455 0)
(1.05129080389 0.00909744165165 0)
(1.04899989044 0.00598615206084 0)
(1.04744345108 0.00385696411189 0)
(1.04640658048 0.00242159508581 0)
(1.04573066688 0.00147014673613 0)
(1.04530111196 0.000851698045945 0)
(1.04503661416 0.000459012192573 0)
(1.04488025042 0.000216752590482 0)
(1.04479263288 7.30137272808e-05 0)
(1.04474876682 -5.50757977438e-06 0)
(1.04473186718 -4.40111581827e-05 0)
(1.0447296168 -5.93875722442e-05 0)
(1.04473510139 -6.17204511235e-05 0)
(1.04474404985 -5.72461934623e-05 0)
(1.04475393389 -4.98038498224e-05 0)
(1.04476337351 -4.16445151126e-05 0)
(1.04477169838 -3.39891853872e-05 0)
(1.04477865795 -2.74241499601e-05 0)
(1.04478424023 -2.21527992589e-05 0)
(1.0447885913 -1.81303372319e-05 0)
(1.04479192278 -1.51422252456e-05 0)
(1.04479449091 -1.28103114797e-05 0)
(1.04479658973 -1.10138980017e-05 0)
(1.04479832983 -9.52426912455e-06 0)
(1.04479965651 -8.23451280949e-06 0)
(1.04480064006 -7.21584260872e-06 0)
(1.04480133016 -6.54757192176e-06 0)
(1.04480174819 -6.16876270656e-06 0)
(1.04480198101 -5.96106035792e-06 0)
(1.04480207284 -5.87276669919e-06 0)
(1.04480206219 -5.85788720926e-06 0)
(1.04480197492 -5.87373497727e-06 0)
(1.04480182874 -5.90075035232e-06 0)
(1.0448016418 -5.92847958871e-06 0)
(1.04480143602 -5.9530602487e-06 0)
(1.04480123764 -5.9782528384e-06 0)
(1.04480105309 -6.01605297046e-06 0)
(1.04480089857 -6.04960063252e-06 0)
(1.04480081987 -6.07706713909e-06 0)
(1.04480087145 -6.10494579933e-06 0)
(1.0448011299 -6.14890904182e-06 0)
(1.04480171998 -6.24900314941e-06 0)
(1.04480281536 -6.51878720674e-06 0)
(1.04480460378 -7.2324334133e-06 0)
(1.0448073887 -8.65640199212e-06 0)
(1.04481147615 -1.12832443019e-05 0)
(1.04481733871 -1.5122387503e-05 0)
(1.04482598972 -2.0059266198e-05 0)
(1.04483858181 -2.63069985417e-05 0)
(1.04485641808 -3.61361613077e-05 0)
(1.04488179861 -5.25329512824e-05 0)
(1.04491819494 -7.97100296999e-05 0)
(1.04497076295 -0.000123912194978 0)
(1.04504710692 -0.000194906930602 0)
(1.04515857697 -0.000308271814607 0)
(1.04532232049 -0.000489168178174 0)
(1.04556419944 -0.000778610198855 0)
(1.04592288757 -0.00124390012995 0)
(1.04645622806 -0.00199665245435 0)
(1.04724831428 -0.00322735838065 0)
(1.04841205242 -0.00526671182144 0)
(1.05007468776 -0.00869140426859 0)
(1.05229278818 -0.0144949116535 0)
(1.05482225907 -0.0242838150576 0)
(1.05687345925 -0.0403673256721 0)
(1.05574076506 -0.0655837324203 0)
(1.04212748055 -0.0994348251619 0)
(1.00447483629 0.0814039940936 0)
(1.06917237759 0.181288535491 0)
(1.13080569405 0.216950415723 0)
(1.17375001399 0.210789153038 0)
(1.1986526647 0.18369007481 0)
(1.2101998954 0.149751681605 0)
(1.21350257521 0.116779142591 0)
(1.2125172606 0.0882206764954 0)
(1.20973100572 0.0650481496337 0)
(1.20651122196 0.0470209076557 0)
(1.2035191625 0.0334068072532 0)
(1.20101148572 0.0233557311104 0)
(1.19903448994 0.0160720122024 0)
(1.19753882302 0.0108795118448 0)
(1.19644136263 0.00723418582455 0)
(1.19565563745 0.00471351588896 0)
(1.19510494422 0.0029976261115 0)
(1.19472653273 0.00184915752847 0)
(1.19447155221 0.00109495676518 0)
(1.1943032414 0.000610607597692 0)
(1.19419460104 0.000307982900248 0)
(1.19412631513 0.00012576519664 0)
(1.19408526419 2.22204585796e-05 0)
(1.19406200449 -3.24538843277e-05 0)
(1.19404970359 -5.72718234861e-05 0)
(1.1940442043 -6.45968704361e-05 0)
(1.19404270551 -6.23744092774e-05 0)
(1.19404338849 -5.55194789156e-05 0)
(1.19404513726 -4.69424285061e-05 0)
(1.19404729348 -3.82567512956e-05 0)
(1.19404948468 -3.02634620394e-05 0)
(1.19405151935 -2.3267261821e-05 0)
(1.19405332887 -1.72919735271e-05 0)
(1.19405490785 -1.22632797256e-05 0)
(1.19405627353 -8.07497245417e-06 0)
(1.19405744575 -4.67356126886e-06 0)
(1.19405839641 -2.06284193178e-06 0)
(1.19405907233 -1.73635601303e-07 0)
(1.19405943286 1.14328695857e-06 0)
(1.19405955304 1.99852479131e-06 0)
(1.19405961336 2.67527575845e-06 0)
(1.19405965061 3.27523006356e-06 0)
(1.19405963519 3.79714507254e-06 0)
(1.1940595842 4.25532108102e-06 0)
(1.19405949741 4.65746730364e-06 0)
(1.19405936431 5.02082949968e-06 0)
(1.19405918837 5.3579185281e-06 0)
(1.19405897734 5.67200186723e-06 0)
(1.19405874176 5.95395401752e-06 0)
(1.19405852386 6.18787727212e-06 0)
(1.19405837039 6.39725130088e-06 0)
(1.1940583113 6.57520371826e-06 0)
(1.19405839478 6.69513691347e-06 0)
(1.19405867752 6.71590399702e-06 0)
(1.19405919478 6.57497955058e-06 0)
(1.19405991626 6.17602429778e-06 0)
(1.19406093806 5.39239788923e-06 0)
(1.19406243372 3.79679030937e-06 0)
(1.19406508292 1.01396399778e-06 0)
(1.19406990863 -3.26045380966e-06 0)
(1.19407741201 -9.81279823955e-06 0)
(1.19408753958 -2.00117281467e-05 0)
(1.19410107849 -3.58829867103e-05 0)
(1.19412002135 -6.03463206106e-05 0)
(1.19414649557 -9.79838806202e-05 0)
(1.19418332789 -0.000156114905072 0)
(1.19423451308 -0.000246385590794 0)
(1.19430568913 -0.000387275431512 0)
(1.19440474703 -0.00060824105238 0)
(1.19454247049 -0.000956609694969 0)
(1.19473290826 -0.00150888162682 0)
(1.19499283774 -0.00238931835151 0)
(1.19533707963 -0.00380110993062 0)
(1.19576289503 -0.00607711870839 0)
(1.19620995294 -0.0097560692942 0)
(1.19645852734 -0.0156815751505 0)
(1.1959218318 -0.0250642116641 0)
(1.19344544001 -0.039359141927 0)
(1.18669453099 -0.0598086836299 0)
(1.17015125616 -0.0851019679656 0)
(0.998962327238 0.0544316220849 0)
(1.0531095726 0.133401604565 0)
(1.11628268927 0.170777555588 0)
(1.17301272966 0.175143869981 0)
(1.21791247546 0.159583604815 0)
(1.25049859453 0.134951019009 0)
(1.27288492934 0.108411656062 0)
(1.28776724157 0.0838849712789 0)
(1.29745270284 0.0630565719837 0)
(1.30366077636 0.0462999211518 0)
(1.30759237322 0.0333205146423 0)
(1.31005373565 0.0235495237408 0)
(1.31157366485 0.01635990723 0)
(1.31249497297 0.0111713142179 0)
(1.31303867121 0.00749150532035 0)
(1.31334676762 0.00492448390546 0)
(1.31351018548 0.0031629525206 0)
(1.31358681839 0.00197474846042 0)
(1.31361319684 0.00118819282433 0)
(1.31361204872 0.000678624779859 0)
(1.31359721215 0.000357003845289 0)
(1.31357689212 0.000160749774399 0)
(1.3135558992 4.6465545685e-05 0)
(1.3135366056 -1.58721794782e-05 0)
(1.31351994999 -4.60599302028e-05 0)
(1.31350626386 -5.70692856469e-05 0)
(1.31349536188 -5.73234920227e-05 0)
(1.31348690656 -5.20847575386e-05 0)
(1.31348050947 -4.45224526673e-05 0)
(1.31347578524 -3.64609826347e-05 0)
(1.31347238296 -2.88732774683e-05 0)
(1.31346999994 -2.22126535936e-05 0)
(1.31346837713 -1.66307071002e-05 0)
(1.31346728673 -1.21346221475e-05 0)
(1.31346656381 -8.65837990963e-06 0)
(1.31346611178 -6.1009072597e-06 0)
(1.31346582918 -4.32512016259e-06 0)
(1.31346562622 -3.12332749017e-06 0)
(1.31346550013 -2.26638664532e-06 0)
(1.31346553561 -1.55031970039e-06 0)
(1.31346569421 -9.75692138829e-07 0)
(1.31346579697 -5.65238759998e-07 0)
(1.31346579603 -2.11266283556e-07 0)
(1.31346572218 1.21057121363e-07 0)
(1.31346559326 4.26847402586e-07 0)
(1.31346542538 7.14628986918e-07 0)
(1.31346522228 9.96066926827e-07 0)
(1.31346498694 1.2815167783e-06 0)
(1.31346473 1.5808728818e-06 0)
(1.31346448554 1.89702857504e-06 0)
(1.31346427713 2.17980538256e-06 0)
(1.31346411287 2.38997243534e-06 0)
(1.31346402314 2.48284749019e-06 0)
(1.31346406031 2.39559884871e-06 0)
(1.31346431233 2.04059133546e-06 0)
(1.31346490983 1.32962668639e-06 0)
(1.3134657969 2.2428679125e-07 0)
(1.31346708486 -1.461837211e-06 0)
(1.31346921997 -3.98728415172e-06 0)
(1.31347238128 -8.07485844701e-06 0)
(1.31347679177 -1.50058137238e-05 0)
(1.31348268713 -2.63426263184e-05 0)
(1.3134903483 -4.36845924811e-05 0)
(1.31350026599 -7.02110878319e-05 0)
(1.31351276143 -0.000110951738207 0)
(1.31352792295 -0.000173654635595 0)
(1.31354537633 -0.000270402974708 0)
(1.31356381895 -0.000420152317876 0)
(1.31358007419 -0.000652716294865 0)
(1.31358725353 -0.00101530622543 0)
(1.3135713195 -0.00158290561133 0)
(1.3135048638 -0.00247453051078 0)
(1.31333370969 -0.00387737312324 0)
(1.31295035789 -0.0060836909658 0)
(1.31214491819 -0.00953779806165 0)
(1.3105122132 -0.0148809533108 0)
(1.30729919388 -0.0229409914926 0)
(1.30129675648 -0.0345576742373 0)
(1.29063803075 -0.0501676123358 0)
(1.27185249521 -0.0685433897342 0)
(0.995736075817 0.0346338568991 0)
(1.04179514883 0.0905689183976 0)
(1.10222839658 0.12154956264 0)
(1.16491413049 0.129605832408 0)
(1.22202568156 0.122009267411 0)
(1.26951894236 0.106019937885 0)
(1.30680226335 0.087097555937 0)
(1.33499538273 0.0686366813277 0)
(1.35574480785 0.0523698394745 0)
(1.37069620544 0.038925618478 0)
(1.38128279816 0.0282980738702 0)
(1.38866272543 0.0201712774284 0)
(1.39373038751 0.0141175102692 0)
(1.39715666727 0.00970533532237 0)
(1.3994344142 0.00655059401896 0)
(1.40091974089 0.00433445278532 0)
(1.40186629115 0.00280414241738 0)
(1.4024523147 0.00176574009881 0)
(1.40280141451 0.00107419174445 0)
(1.40299811289 0.0006232314834 0)
(1.40309933535 0.000336405797594 0)
(1.40314278996 0.000159620101558 0)
(1.40315305211 5.51617546848e-05 0)
(1.40314556518 -2.99982838579e-06 0)
(1.40312980827 -3.21234793786e-05 0)
(1.40311140907 -4.38903899427e-05 0)
(1.4030933742 -4.57602819782e-05 0)
(1.40307722784 -4.24183082808e-05 0)
(1.40306357132 -3.67279162195e-05 0)
(1.40305247816 -3.03658076827e-05 0)
(1.40304374672 -2.4246508515e-05 0)
(1.40303705207 -1.88169463221e-05 0)
(1.40303203338 -1.42456191317e-05 0)
(1.40302834126 -1.05346617776e-05 0)
(1.40302567823 -7.58310631356e-06 0)
(1.40302381236 -5.26633830377e-06 0)
(1.40302256727 -3.46188493919e-06 0)
(1.40302179203 -2.02572602105e-06 0)
(1.40302132085 -8.53599962972e-07 0)
(1.40302095853 7.6829459863e-08 0)
(1.40302063629 7.84581340842e-07 0)
(1.40302043473 1.2723627109e-06 0)
(1.40302034202 1.64287034932e-06 0)
(1.4030202665 1.95751653568e-06 0)
(1.40302017309 2.25728920295e-06 0)
(1.40302005564 2.55989733627e-06 0)
(1.40301991321 2.87428083347e-06 0)
(1.40301974826 3.2050808365e-06 0)
(1.40301956313 3.5527779527e-06 0)
(1.40301935147 3.90805271816e-06 0)
(1.40301912467 4.22940956762e-06 0)
(1.40301891658 4.48415529319e-06 0)
(1.40301875631 4.63335147891e-06 0)
(1.40301866637 4.62022470918e-06 0)
(1.40301866355 4.35495000227e-06 0)
(1.40301875477 3.69776791406e-06 0)
(1.40301895677 2.43547088717e-06 0)
(1.40301925473 4.5024824292e-07 0)
(1.40301988967 -2.67946879714e-06 0)
(1.40302105559 -7.71479390308e-06 0)
(1.40302258626 -1.54544938119e-05 0)
(1.40302415805 -2.72241757049e-05 0)
(1.40302530378 -4.48799391418e-05 0)
(1.40302528478 -7.14093854681e-05 0)
(1.40302261494 -0.00011140354358 0)
(1.40301455928 -0.00017189347984 0)
(1.40299631722 -0.000263753885399 0)
(1.40295971113 -0.000403858398385 0)
(1.40289081651 -0.000618267052371 0)
(1.40276593762 -0.000947585205494 0)
(1.40254506003 -0.0014551271547 0)
(1.40216186222 -0.00223930408934 0)
(1.40150485272 -0.00344913762861 0)
(1.40038576878 -0.00530829454731 0)
(1.39849143759 -0.00813949298357 0)
(1.39530888085 -0.0123773940716 0)
(1.39002528979 -0.0185327477906 0)
(1.38149294777 -0.0270429999382 0)
(1.36821649377 -0.0379895679487 0)
(1.34780493305 -0.050479849476 0)
(0.994011533073 0.0192358035225 0)
(1.03484764097 0.0523338377065 0)
(1.09199263609 0.0723631251233 0)
(1.15662421324 0.0791292303103 0)
(1.22032118088 0.0761045453565 0)
(1.2770194742 0.0673339710534 0)
(1.32424421437 0.0561509035872 0)
(1.36181576529 0.0447990114572 0)
(1.39068534143 0.0345303783067 0)
(1.41226078789 0.0258814333098 0)
(1.42801826393 0.0189465248618 0)
(1.43929888782 0.0135849828017 0)
(1.44722812626 0.00955653460268 0)
(1.45270418736 0.00660011518292 0)
(1.45641901776 0.00447418943927 0)
(1.45889150867 0.0029735120964 0)
(1.46050237815 0.00193276683286 0)
(1.46152577898 0.00122369163367 0)
(1.46215579796 0.000749548282572 0)
(1.46252762524 0.000439015594208 0)
(1.4627339044 0.000240519339536 0)
(1.46283704905 0.000117410666339 0)
(1.46287835354 4.40487660672e-05 0)
(1.46288459475 2.69087425973e-06 0)
(1.46287247266 -1.84437705041e-05 0)
(1.46285212368 -2.74373420184e-05 0)
(1.46282957454 -2.94371837722e-05 0)
(1.4628080378 -2.76874825619e-05 0)
(1.462789041 -2.41861236989e-05 0)
(1.46277312844 -2.01141544154e-05 0)
(1.46276029137 -1.61201279444e-05 0)
(1.46275023586 -1.25267146096e-05 0)
(1.46274255169 -9.4603873957e-06 0)
(1.4627368073 -6.93215483246e-06 0)
(1.4627326044 -4.8880279574e-06 0)
(1.46272960078 -3.25880904032e-06 0)
(1.46272750848 -1.98157040722e-06 0)
(1.46272607014 -1.01518561641e-06 0)
(1.46272507304 -3.15198272767e-07 0)
(1.46272445241 2.05825064015e-07 0)
(1.46272409477 6.85107413847e-07 0)
(1.46272384996 1.15848812679e-06 0)
(1.46272368551 1.58020465966e-06 0)
(1.46272356219 1.95638234031e-06 0)
(1.46272345052 2.30865054301e-06 0)
(1.46272333199 2.6504201067e-06 0)
(1.46272319379 2.9869644492e-06 0)
(1.46272302772 3.31630084734e-06 0)
(1.46272282982 3.62890779909e-06 0)
(1.46272259823 3.91163733518e-06 0)
(1.46272233628 4.15622977899e-06 0)
(1.46272205193 4.33095452242e-06 0)
(1.46272175342 4.38373439539e-06 0)
(1.46272144957 4.24409183994e-06 0)
(1.4627211569 3.82309600351e-06 0)
(1.46272090522 3.00754115058e-06 0)
(1.46272063815 1.68293530227e-06 0)
(1.46272027508 -2.85207247961e-07 0)
(1.46271971366 -3.12532649517e-06 0)
(1.46271879441 -7.72104930871e-06 0)
(1.46271724665 -1.48505831298e-05 0)
(1.4627143944 -2.56089347039e-05 0)
(1.46270912344 -4.15440518672e-05 0)
(1.46269962884 -6.50408844548e-05 0)
(1.46268285101 -9.97027034488e-05 0)
(1.4626536543 -0.000150924104566 0)
(1.4626035328 -0.000226888833647 0)
(1.46251873084 -0.000340071153586 0)
(1.46237679571 -0.000509085138453 0)
(1.46214090557 -0.000762347772776 0)
(1.46175110956 -0.00114359596641 0)
(1.46111282796 -0.00172049366759 0)
(1.46007500426 -0.00258878297656 0)
(1.4583967345 -0.00388797218598 0)
(1.45570419268 -0.00581040835776 0)
(1.45143214004 -0.00859915051559 0)
(1.44476044776 -0.0125142524297 0)
(1.43462043233 -0.0177360101146 0)
(1.41975322603 -0.0242124848817 0)
(1.39831385912 -0.0313974620874 0)
(0.993269669107 0.00617014793343 0)
(1.03158100513 0.0171020436658 0)
(1.08672182739 0.0239906465771 0)
(1.15174555808 0.0265606644445 0)
(1.21823538036 0.0258180582829 0)
(1.27925776267 0.0230488862868 0)
(1.33140138448 0.0193656321361 0)
(1.37377601584 0.0155468590016 0)
(1.40691056651 0.012044931447 0)
(1.43203317112 0.00906640100673 0)
(1.45060219025 0.00666059595796 0)
(1.46402990376 0.00479009255141 0)
(1.47355021145 0.00337842915968 0)
(1.48017569025 0.00233873869685 0)
(1.48470234999 0.00158891425282 0)
(1.48773627254 0.00105828897442 0)
(1.48972741593 0.000689462601572 0)
(1.49100285103 0.000437638137651 0)
(1.49179593545 0.000268885539685 0)
(1.49227030984 0.000158111167082 0)
(1.49253880518 8.71251942915e-05 0)
(1.49267788489 4.2976022161e-05 0)
(1.49273842164 1.6586700244e-05 0)
(1.49275359891 1.66671880889e-06 0)
(1.49274436528 -6.06562618331e-06 0)
(1.49272358033 -9.4107887225e-06 0)
(1.4926989389 -1.02171049528e-05 0)
(1.49267466868 -9.65419950749e-06 0)
(1.49265286686 -8.44092588276e-06 0)
(1.49263437495 -6.99507061375e-06 0)
(1.49261931569 -5.55679326902e-06 0)
(1.49260742706 -4.24608084517e-06 0)
(1.49259828003 -3.11013293182e-06 0)
(1.49259139974 -2.15520288136e-06 0)
(1.49258633245 -1.36510475735e-06 0)
(1.49258267807 -7.18103870322e-07 0)
(1.49258010114 -1.92890581591e-07 0)
(1.49257833121 2.32110468496e-07 0)
(1.49257716191 6.03021669203e-07 0)
(1.49257641535 9.71538323283e-07 0)
(1.49257593709 1.27511281297e-06 0)
(1.4925756348 1.55760434664e-06 0)
(1.49257545086 1.83629945264e-06 0)
(1.49257533299 2.12118743075e-06 0)
(1.49257524208 2.41975733366e-06 0)
(1.49257515199 2.73490899594e-06 0)
(1.49257504484 3.06594594094e-06 0)
(1.49257490786 3.40865895681e-06 0)
(1.49257473147 3.75449645571e-06 0)
(1.49257450752 4.0890655564e-06 0)
(1.49257423031 4.39213415605e-06 0)
(1.49257389562 4.63127451832e-06 0)
(1.49257349764 4.76008621188e-06 0)
(1.49257302503 4.71545112766e-06 0)
(1.49257245339 4.41537205541e-06 0)
(1.49257176102 3.73661114962e-06 0)
(1.49257093143 2.51676816732e-06 0)
(1.49256981966 7.15308015055e-07 0)
(1.49256801778 -1.9496809678e-06 0)
(1.49256523501 -6.10065431745e-06 0)
(1.49256107349 -1.22679970551e-05 0)
(1.49255450556 -2.12262169319e-05 0)
(1.4925439212 -3.40630348592e-05 0)
(1.49252678133 -5.23347219569e-05 0)
(1.49249897361 -7.82436733584e-05 0)
(1.4924538009 -0.000114823905745 0)
(1.49238038999 -0.000166451483515 0)
(1.49226167259 -0.00023962850303 0)
(1.4920702938 -0.000342860454078 0)
(1.49176166663 -0.000488688358753 0)
(1.49126350556 -0.000697277402713 0)
(1.49046707394 -0.00100238056529 0)
(1.48920302701 -0.00143646729949 0)
(1.48720556947 -0.00204703025989 0)
(1.48407632994 -0.00289541941654 0)
(1.479235608 -0.00404911629525 0)
(1.4718767491 -0.00556238673179 0)
(1.46098650823 -0.00743671967701 0)
(1.44541807151 -0.00957806529615 0)
(1.42356254992 -0.0117379281019 0)
(0.993270466964 -0.00616840394583 0)
(1.03158098785 -0.0171003780622 0)
(1.08672176123 -0.0239897636632 0)
(1.1517455959 -0.0265602483679 0)
(1.21823545838 -0.0258179938205 0)
(1.27925786479 -0.0230491101121 0)