/*--------------------------------*- C++ -*----------------------------------*\
| =========                 |                                                 |
| \\      /  F ield         | OpenFOAM: The Open Source CFD Toolbox           |
|  \\    /   O peration     | Version:  2106                                  |
|   \\  /    A nd           | Website:  www.openfoam.com                      |
|    \\/     M anipulation  |                                                 |
\*---------------------------------------------------------------------------*/
FoamFile
{
    version     2.0;
    format      ascii;
    arch        "LSB;label=32;scalar=64";
    class       surfaceScalarField;
    location    "0.49";
    object      phi;
}
// * * * * * * * * * * * * * * * * * * * * * * * * * * * * * * * * * * * * * //

dimensions      [0 3 -1 0 0 0 0];

oriented        oriented;

internalField   nonuniform List<scalar> 
22100
(
3.38461200673e-05
1.61538800159e-05
2.24572090752e-05
1.13889108684e-05
1.62585515568e-05
6.1986573393e-06
1.27977740015e-05
3.46077747683e-06
1.08046395537e-05
1.99313437621e-06
9.60458602126e-06
1.20005352186e-06
8.85131779195e-06
7.53268253692e-07
8.36434855852e-06
4.86969318376e-07
8.04433028242e-06
3.20018402166e-07
7.83283510597e-06
2.1149532986e-07
7.69339155193e-06
1.39443706877e-07
7.60223426021e-06
9.11574216577e-08
7.54347107964e-06
5.8763301729e-08
7.50633380016e-06
3.71374069755e-08
7.48349398013e-06
2.28399679964e-08
7.46997293023e-06
1.35212643865e-08
7.46240819101e-06
7.56504678728e-09
7.45854017504e-06
3.86841947749e-09
7.4568214021e-06
1.71926460981e-09
7.45641482844e-06
4.07082101551e-10
7.45676472723e-06
-3.49414392623e-10
7.45745098002e-06
-6.85847506539e-10
7.45820934677e-06
-7.58052574113e-10
7.45893462978e-06
-7.25045275535e-10
7.45957888407e-06
-6.44083378259e-10
7.46012274316e-06
-5.43723887301e-10
7.46056476279e-06
-4.41910687721e-10
7.46091339313e-06
-3.4854484051e-10
7.46118154984e-06
-2.68066139779e-10
7.46138334412e-06
-2.01677468592e-10
7.4615321398e-06
-1.48712217632e-10
7.46163960153e-06
-1.07411093136e-10
7.46171554838e-06
-7.58835044805e-11
7.46176804987e-06
-5.25061197286e-11
7.46180102901e-06
-3.30338340094e-11
7.46181947087e-06
-1.85467490445e-11
7.46182815038e-06
-8.82155565794e-12
7.46183039496e-06
-2.55727786954e-12
7.46182819451e-06
1.80892236474e-12
7.46182268476e-06
5.00908416029e-12
7.46181482561e-06
7.25025828466e-12
7.4618052588e-06
8.87619034748e-12
7.46179437696e-06
1.0166531587e-11
7.46178237059e-06
1.13082899501e-11
7.46176928675e-06
1.24202652573e-11
7.46175497986e-06
1.36348789661e-11
7.46173923255e-06
1.50819094216e-11
7.46172172026e-06
1.6824852246e-11
7.46170199628e-06
1.89552717899e-11
7.46167954698e-06
2.16348210778e-11
7.46165378795e-06
2.49292154311e-11
7.4616240328e-06
2.89251185098e-11
7.46158952034e-06
3.37010611162e-11
7.46154938476e-06
3.93194734054e-11
7.46150278392e-06
4.58109557373e-11
7.46144892632e-06
5.3087593061e-11
7.46138717735e-06
6.09184545861e-11
7.46131751906e-06
6.87947169234e-11
7.46124070472e-06
7.59933029359e-11
7.46115922786e-06
8.06988737007e-11
7.46107971582e-06
7.88559459647e-11
7.46101394603e-06
6.50731619549e-11
7.4609695492e-06
4.3963831537e-11
7.4609661298e-06
3.23303858105e-12
7.46103956745e-06
-7.36982302496e-11
7.46124788563e-06
-2.08772050384e-10
7.46168621548e-06
-4.38389245253e-10
7.46250415618e-06
-8.18371931966e-10
7.46393709997e-06
-1.43352634921e-09
7.46634064884e-06
-2.40396157948e-09
7.47016380015e-06
-3.82340498621e-09
7.47661969232e-06
-6.45611692316e-09
7.48739697469e-06
-1.0777594334e-08
7.50557804601e-06
-1.81815166467e-08
7.53876849475e-06
-3.31908648411e-08
7.60798422344e-06
-6.92161600797e-08
7.77463528675e-06
-1.66651381632e-07
8.22950058741e-06
-4.5486557767e-07
9.69696833125e-06
-1.46746809007e-06
-5.45079005712e-06
1.51477584015e-05
5.02175947401e-05
1.59362849933e-05
4.42441114728e-05
1.73623940103e-05
3.7779501192e-05
1.26632674124e-05
3.26461436019e-05
8.5941349776e-06
2.89380913753e-05
5.70118658188e-06
2.63596209288e-05
3.77852406465e-06
2.45875165144e-05
2.52537283902e-06
2.33734745086e-05
1.70101156296e-06
2.25435255432e-05
1.14996764268e-06
2.19782169646e-05
7.76804210084e-07
2.15955145351e-05
5.22146433086e-07
2.13387380584e-05
3.4793419858e-07
2.11684966193e-05
2.29005051313e-07
2.10573391256e-05
1.48295275963e-07
2.09861513919e-05
9.4028171557e-08
2.09416792895e-05
5.79939412554e-08
2.09147978638e-05
3.44471638614e-08
2.08992992634e-05
1.93678301917e-08
2.08910759664e-05
9.94338964051e-09
2.08872762959e-05
4.20753364774e-09
2.088620769e-05
7.19879167678e-10
2.08864538863e-05
-9.314629408e-10
2.0887325652e-05
-1.62937084829e-09
2.08884654157e-05
-1.86445277654e-09
2.08896389623e-05
-1.81733724888e-09
2.08907221337e-05
-1.62666434716e-09
2.08916598793e-05
-1.37948534104e-09
2.08924375316e-05
-1.12608885082e-09
2.08930628369e-05
-8.93352747571e-10
2.08935550191e-05
-6.93922099669e-10
2.08939388997e-05
-5.32725498556e-10
2.08942403776e-05
-4.09009374062e-10
2.08944513248e-05
-2.86907325097e-10
2.08945983863e-05
-1.99594811864e-10
2.0894698667e-05
-1.33384487083e-10
2.08947638872e-05
-8.39294291117e-11
2.08948042078e-05
-4.94629616005e-11
2.0894827732e-05
-2.660998829e-11
2.08948392385e-05
-1.05154171951e-11
2.08948417144e-05
1.51141875403e-12
2.08948376097e-05
1.02069948101e-11
2.0894828653e-05
1.66627195622e-11
2.08948159935e-05
2.16227847637e-11
2.08948003464e-05
2.57013422834e-11
2.08947821418e-05
2.94088741311e-11
2.08947614781e-05
3.30971413756e-11
2.08947383252e-05
3.70082050291e-11
2.08947125743e-05
4.13262424406e-11
2.08946840022e-05
4.61957120212e-11
2.08946523571e-05
5.18465793433e-11
2.08946174421e-05
5.83321710755e-11
2.08945791459e-05
6.56736573559e-11
2.08945375318e-05
7.37960734559e-11
2.08944929122e-05
8.24230338364e-11
2.08944461621e-05
9.10093290793e-11
2.08943991182e-05
9.86036082274e-11
2.0894355199e-05
1.03373288343e-10
2.08943205225e-05
1.02115052132e-10
2.08943045954e-05
9.06668565847e-11
2.08943228685e-05
6.12286502035e-11
2.0894402938e-05
-1.98082134897e-12
2.08945929532e-05
-1.25593401282e-10
2.08949614895e-05
-3.25396052131e-10
2.08956278783e-05
-6.63828742231e-10
2.08966978984e-05
-1.1441257098e-09
2.08983505879e-05
-1.86251162545e-09
2.09009441735e-05
-3.03285475118e-09
2.09050265447e-05
-4.90144503013e-09
2.09114668647e-05
-7.87466785125e-09
2.09216888749e-05
-1.26270828749e-08
2.09381831475e-05
-2.0318668654e-08
2.09650929329e-05
-3.33666365175e-08
2.10093581984e-05
-5.50433583953e-08
2.10841485514e-05
-9.29723184968e-08
2.12153841689e-05
-1.64427053744e-07
2.14559605912e-05
-3.09793004612e-07
2.1913707083e-05
-6.24398149147e-07
2.28004803838e-05
-1.34163934651e-06
2.44439928132e-05
-3.11098080231e-06
-7.03659487143e-06
2.60297967714e-05
5.35171052955e-05
1.24191795155e-05
5.29349683438e-05
1.79445308416e-05
4.96538401479e-05
1.59443954548e-05
4.58401815206e-05
1.24077935243e-05
4.24400925635e-05
9.10127551027e-06
3.97291727086e-05
6.48944398802e-06
3.7687306382e-05
4.56723930691e-06
3.61976637613e-05
3.19065438994e-06
3.51326133581e-05
2.21501826634e-06
3.43823685554e-05
1.52704925557e-06
3.38606278085e-05
1.04388741183e-06
3.35023477845e-05
7.0621445492e-07
3.32596030924e-05
4.71749996516e-07
3.30975930136e-05
3.10305655295e-07
3.29913372249e-05
2.00284362239e-07
3.2923095714e-05
1.26235955941e-07
3.28804082128e-05
7.71352690825e-08
3.2854623583e-05
4.51531239139e-08
3.28397970097e-05
2.47706542564e-08
3.28318710288e-05
1.21341618306e-08
3.28280021318e-05
4.58935688151e-09
3.28270038358e-05
6.72987936045e-11
3.28271849614e-05
-1.81011512151e-09
3.28280336578e-05
-2.71283483303e-09
3.28291496542e-05
-2.93307787693e-09
3.28302970691e-05
-2.77386037008e-09
3.28313531734e-05
-2.43537128651e-09
3.28322636678e-05
-2.0363507195e-09
3.28330136793e-05
-1.64317423184e-09
3.28336092826e-05
-1.28940566214e-09
3.28340654161e-05
-9.88740208131e-10
3.28344002841e-05
-7.43826176937e-10
3.28346664921e-05
-5.53119661216e-10
3.28348827373e-05
-4.15864095375e-10
3.28350296775e-05
-2.80449888468e-10
3.28351285603e-05
-1.83066830878e-10
3.28351940039e-05
-1.15277004278e-10
3.28352353857e-05
-6.85303981804e-11
3.28352595504e-05
-3.54304984675e-11
3.2835270497e-05
-1.03361470676e-11
3.28352718314e-05
7.87613895099e-12
3.28352661064e-05
2.13515828071e-11
3.28352551542e-05
3.15261121417e-11
3.2835240193e-05
3.95843919867e-11
3.28352220235e-05
4.65259391013e-11
3.28352011028e-05
5.29516926863e-11
3.28351776779e-05
5.92672148079e-11
3.28351519733e-05
6.57735154671e-11
3.283512413e-05
7.27230405537e-11
3.28350941688e-05
8.04813817725e-11
3.28350624257e-05
8.87666803273e-11
3.28350295238e-05
9.72894223531e-11
3.28349965596e-05
1.05504959577e-10
3.28349653567e-05
1.12372706802e-10
3.28349389178e-05
1.16139022722e-10
3.28349218883e-05
1.14290155048e-10
3.28349214988e-05
1.02412499673e-10
3.28349495022e-05
7.28141748053e-11
3.28350231759e-05
1.57183237765e-11
3.28351726841e-05
-8.93919231745e-11
3.28354496387e-05
-2.79834071642e-10
3.28359437975e-05
-6.20310515617e-10
3.28366651349e-05
-1.04723667678e-09
3.28377129347e-05
-1.71238063689e-09
3.28393478367e-05
-2.77945106168e-09
3.2841942823e-05
-4.45800462169e-09
3.28460023978e-05
-7.09322739808e-09
3.28523414842e-05
-1.12412339644e-08
3.28622731212e-05
-1.78069173332e-08
3.28779616157e-05
-2.83160884047e-08
3.29030666112e-05
-4.54242815532e-08
3.29429370914e-05
-7.32377739326e-08
3.30073998889e-05
-1.19506771893e-07
3.31134299203e-05
-1.99003046438e-07
3.32900273862e-05
-3.4102514047e-07
3.35853733091e-05
-6.05139363528e-07
3.40705079905e-05
-1.10953342134e-06
3.48115074265e-05
-2.08263882703e-06
3.56721069352e-05
-3.97157997565e-06
-7.10445732913e-06
3.5739970238e-05
5.35105664377e-05
8.90861290946e-06
5.55742222708e-05
1.58808748919e-05
5.52424825891e-05
1.62761349941e-05
5.35977861441e-05
1.40524899041e-05
5.154184802e-05
1.11572136309e-05
4.95802804481e-05
8.45101164551e-06
4.79243516616e-05
6.22316823688e-06
4.66181400769e-05
4.49686618218e-06
4.56304676028e-05
3.20269099597e-06
4.49051189883e-05
2.25239812438e-06
4.43840921294e-05
1.56491452826e-06
4.40166962844e-05
1.07361053854e-06
4.37619700841e-05
7.26476433407e-07
4.35882717803e-05
4.84004225161e-07
4.34718727606e-05
3.16683693544e-07
4.33953631202e-05
2.02746036333e-07
4.33461933396e-05
1.26305562875e-07
4.33154562899e-05
7.58907655416e-08
4.32969205216e-05
4.33070476032e-08
4.32862950541e-05
2.2760224395e-08
4.32806927891e-05
1.01921441334e-08
4.32778856121e-05
2.87493674157e-09
4.32770582257e-05
-9.82333198735e-10
4.32772764938e-05
-2.93076940799e-09
4.32779643562e-05
-3.62067096362e-09
4.32788276819e-05
-3.63698710262e-09
4.32797007159e-05
-3.30825315215e-09
4.3280498347e-05
-2.83386628143e-09
4.32811842128e-05
-2.32897632772e-09
4.32817500908e-05
-1.85527514127e-09
4.32822028227e-05
-1.44148567727e-09
4.32825551792e-05
-1.09619193725e-09
4.32828168436e-05
-8.14817549043e-10
4.32829920545e-05
-5.91138537971e-10
4.32831249693e-05
-4.13516575584e-10
4.32832100532e-05
-2.68472225454e-10
4.32832637601e-05
-1.69448081939e-10
4.32833031376e-05
-1.08511746898e-10
4.32833270074e-05
-6.00535597802e-11
4.32833384025e-05
-2.26149803894e-11
4.32833407785e-05
4.53425358325e-12
4.3283336127e-05
2.50047673694e-11
4.32833261442e-05
4.05083035485e-11
4.32833120415e-05
5.2690978921e-11
4.3283294487e-05
6.30711426441e-11
4.32832738979e-05
7.24840080651e-11
4.32832506161e-05
8.14365418815e-11
4.3283224942e-05
9.02522628925e-11
4.32831972368e-05
9.91641189067e-11
4.32831681253e-05
1.0830357222e-10
4.32831382663e-05
1.17303880824e-10
4.32831086477e-05
1.25543070607e-10
4.3283080781e-05
1.32019886768e-10
4.32830567767e-05
1.3506695677e-10
4.32830395267e-05
1.32090342224e-10
4.32830337338e-05
1.18776021269e-10
4.32830474129e-05
8.73606181987e-11
4.3283092938e-05
2.61191084211e-11
4.32831894943e-05
-8.20517472348e-11
4.3283352629e-05
-2.53477857784e-10
4.32836013512e-05
-5.29452768155e-10
4.32840496558e-05
-1.06942681385e-09
4.32848301772e-05
-1.82821970945e-09
4.32860932967e-05
-2.976083398e-09
4.3288047549e-05
-4.73452144773e-09
4.32910440587e-05
-7.45488343729e-09
4.32956425498e-05
-1.16922926462e-08
4.33027221353e-05
-1.83215051092e-08
4.33136649896e-05
-2.87506713847e-08
4.33306291221e-05
-4.52809401058e-08
4.33569230488e-05
-7.1718738085e-08
4.33981151512e-05
-1.14430291396e-07
4.34630526484e-05
-1.84444800171e-07
4.35654514046e-05
-3.01402416158e-07
4.37252507263e-05
-5.00824890083e-07
4.39670199648e-05
-8.46909019595e-07
4.4307381685e-05
-1.44989583526e-06
4.47075753659e-05
-2.48283302243e-06
4.49266333954e-05
-4.19063839955e-06
-6.57497268079e-06
4.4397148624e-05
5.27351379808e-05
6.17347478533e-06
5.5730934458e-05
1.28850783267e-05
5.73114743022e-05
1.46955950293e-05
5.76109919052e-05
1.37529722671e-05
5.7133522901e-05
1.16346826514e-05
5.63194686443e-05
9.26506599265e-06
5.54489888144e-05
7.09364820861e-06
5.46629786767e-05
5.2828765392e-06
5.40136835884e-05
3.85198635996e-06
5.3506152748e-05
2.75992925969e-06
5.31242573288e-05
1.94681025085e-06
5.28449882727e-05
1.35287988194e-06
5.26454425248e-05
9.26022486329e-07
5.25057187873e-05
6.23728274665e-07
5.24097245766e-05
4.12678275616e-07
5.23450191933e-05
2.67451843886e-07
5.23022820713e-05
1.69043184522e-07
5.22746956539e-05
1.03477723614e-07
5.22573718798e-05
6.0631397643e-08
5.22468639513e-05
3.32687462724e-08
5.2240764922e-05
1.62917209703e-08
5.2237456596e-05
6.18377374134e-09
5.22359583333e-05
5.16390481904e-10
5.22354506596e-05
-2.42267606938e-09
5.22355157828e-05
-3.68540293728e-09
5.22358613183e-05
-3.98217831414e-09
5.22363155592e-05
-3.76220028054e-09
5.22367818632e-05
-3.29993962756e-09
5.22372091607e-05
-2.75605124547e-09
5.22375747313e-05
-2.22064177857e-09
5.2237871845e-05
-1.73846611058e-09
5.22381033544e-05
-1.32757827885e-09
5.22382795016e-05
-9.90899884326e-10
5.2238412191e-05
-7.23829460942e-10
5.22385123415e-05
-5.13797931248e-10
5.22385967225e-05
-3.53109177805e-10
5.22386618401e-05
-2.34967023088e-10
5.22387036671e-05
-1.50896093225e-10
5.223873585e-05
-9.2935189557e-11
5.22387506084e-05
-3.81595521281e-11
5.22387551443e-05
-8.59451075018e-13
5.22387520733e-05
2.71690147695e-11
5.22387432754e-05
4.83201716043e-11
5.22387301885e-05
6.47562669361e-11
5.22387136777e-05
7.85136099508e-11
5.22386942972e-05
9.07507142916e-11
5.22386725089e-05
1.02063952131e-10
5.22386489336e-05
1.12649360716e-10
5.22386248817e-05
1.22024309718e-10
5.22385982255e-05
1.33714123253e-10
5.22385706721e-05
1.43595433527e-10
5.22385434173e-05
1.51543349875e-10
5.22385180828e-05
1.56061790898e-10
5.22384974186e-05
1.54406700656e-10
5.22384874395e-05
1.40691591473e-10
5.22384958849e-05
1.08972917837e-10
5.22385272139e-05
5.44877391991e-11
5.22386054831e-05
-5.34462199421e-11
5.22387264655e-05
-2.04352740427e-10
5.22389248963e-05
-4.52985381618e-10
5.2239264604e-05
-8.69955734515e-10
5.22397873904e-05
-1.59326439746e-09
5.22405666663e-05
-2.60828348822e-09
5.22417359357e-05
-4.14554070177e-09
5.22434980876e-05
-6.49753949493e-09
5.22461551908e-05
-1.01126485519e-08
5.22501593695e-05
-1.56970413059e-08
5.22562024009e-05
-2.4364973768e-08
5.22653434094e-05
-3.78922957819e-08
5.22792002698e-05
-5.91385309492e-08
5.23002309956e-05
-9.27501373596e-08
5.23321510113e-05
-1.46350931549e-07
5.23803027723e-05
-2.32597209646e-07
5.2451610055e-05
-3.7271021805e-07
5.25529318909e-05
-6.02147049938e-07
5.26848061878e-05
-9.78783843975e-07
5.28250002256e-05
-1.59009017786e-06
5.28920270863e-05
-2.54986063619e-06
5.26734507378e-05
-3.97206226636e-06
-5.76615516776e-06
5.1864633732e-05
5.1983486463e-05
4.18998820931e-06
5.50586639883e-05
9.8099007129e-06
5.7638613217e-05
1.21156456883e-05
5.93259032437e-05
1.20656822221e-05
6.02280153958e-05
1.07325705083e-05
6.05929267708e-05
8.90015470624e-06
6.06482839337e-05
7.0382911959e-06
6.05531897801e-05
5.37797091525e-06
6.04029555429e-05
4.00222085781e-06
6.02479153925e-05
2.9149696958e-06
6.01107902085e-05
2.08393571495e-06
5.99990310128e-05
1.46463934645e-06
5.99125161491e-05
1.01253760815e-06
5.98479245556e-05
6.88320112753e-07
5.98010213087e-05
4.59581808313e-07
5.97677370308e-05
3.00736481415e-07
5.97445961058e-05
1.92184521344e-07
5.97288180348e-05
1.19256253313e-07
5.97182704053e-05
7.11795291872e-08
5.971136475e-05
4.01749207831e-08
5.97069459134e-05
2.07110674134e-08
5.9704212483e-05
8.91768786e-09
5.97026038465e-05
2.12545564553e-09
5.97016996348e-05
-1.51808954595e-09
5.97012416064e-05
-3.22703287469e-09
5.97010522956e-05
-3.79256910261e-09
5.97010161641e-05
-3.72584068907e-09
5.97010605516e-05
-3.34416630142e-09
5.97011417502e-05
-2.8371661007e-09
5.97012341265e-05
-2.31294654764e-09
5.97013237619e-05
-1.82810183031e-09
5.97014040863e-05
-1.40791012519e-09
5.97014736305e-05
-1.06053065662e-09
5.97015330026e-05
-7.83342696277e-10
5.97015830294e-05
-5.63998190415e-10
5.97016225248e-05
-3.92892459601e-10
5.97016498872e-05
-2.62748101648e-10
5.97016646714e-05
-1.66223027869e-10
5.97016624859e-05
-9.13891727731e-11
5.9701653817e-05
-3.02208972721e-11
5.97016465831e-05
5.5323729106e-12
5.97016367942e-05
3.6067964298e-11
5.97016255872e-05
5.86176961794e-11
5.97016132861e-05
7.61023152106e-11
5.97015987675e-05
9.20134658587e-11
5.97015818574e-05
1.06548708894e-10
5.97015626713e-05
1.20072145703e-10
5.97015412975e-05
1.32802507934e-10
5.97015173837e-05
1.44688503021e-10
5.970149435e-05
1.5546857096e-10
5.970147224e-05
1.64406235938e-10
5.97014523114e-05
1.70184955395e-10
5.9701436168e-05
1.70896026809e-10
5.97014251881e-05
1.64031389345e-10
5.97014176392e-05
1.46791631185e-10
5.97014081439e-05
1.17132481289e-10
5.97014135251e-05
4.76286134706e-11
5.97014247716e-05
-6.60586742493e-11
5.97015137965e-05
-2.94650128292e-10
5.9701705812e-05
-6.46311448427e-10
5.97020083514e-05
-1.17322934372e-09
5.97023993857e-05
-1.98495677212e-09
5.97029832685e-05
-3.19325733975e-09
5.97038429491e-05
-5.00572499111e-09
5.97050922119e-05
-7.74741771647e-09
5.97068964764e-05
-1.19177634461e-08
5.97094942165e-05
-1.82956484923e-08
5.97132300911e-05
-2.81014288611e-08
5.97185941466e-05
-4.32569262935e-08
5.97262676298e-05
-6.68126183063e-08
5.97371523108e-05
-1.03635402971e-07
5.97523108838e-05
-1.61510122348e-07
5.97725812062e-05
-2.52868008833e-07
5.97973716064e-05
-3.97500790889e-07
5.98215251335e-05
-6.26300675255e-07
5.98281678215e-05
-9.85426561438e-07
5.9775265602e-05
-1.53718791425e-06
5.95749157171e-05
-2.34951126196e-06
5.9069339917e-05
-3.46648722431e-06
-4.7952327635e-06
5.80984180921e-05
5.1437305378e-05
2.75268273961e-06
5.4265820603e-05
6.98138541712e-06
5.72496432517e-05
9.13182294726e-06
5.97900276481e-05
9.52529779694e-06
6.17201282227e-05
8.80246994987e-06
6.30883033228e-05
7.53197969338e-06
6.40167170981e-05
6.10987757815e-06
6.46292371815e-05
4.76545105535e-06
6.50258044668e-05
3.60565383339e-06
6.52790794052e-05
2.66169506051e-06
6.54389748081e-05
1.92404059468e-06
6.55386919841e-05
1.36492245038e-06
6.55999308438e-05
9.51298998604e-07
6.56367459914e-05
6.51505221715e-07
6.56581974293e-05
4.38130603347e-07
6.56701060349e-05
2.88828140514e-07
6.56761957425e-05
1.86095165617e-07
6.56788325663e-05
1.16619817451e-07
6.56795035914e-05
7.05089707478e-08
6.56791280101e-05
4.05510178609e-08
6.56782612252e-05
2.15783717891e-08
6.5677230881e-05
9.94853746466e-09
6.56762221441e-05
3.1346566877e-09
6.5675313295e-05
-6.08842087016e-10
6.567454497e-05
-2.45837346916e-09
6.56739169253e-05
-3.16423599401e-09
6.56734182922e-05
-3.22698215838e-09
6.56730315763e-05
-2.95733032282e-09
6.56727378387e-05
-2.54332486258e-09
6.56725189269e-05
-2.09392576129e-09
6.56723587278e-05
-1.66778811174e-09
6.56722435284e-05
-1.29270099359e-09
6.56721612191e-05
-9.78255142544e-10
6.56721011441e-05
-7.23404095354e-10
6.56720575666e-05
-5.20610682845e-10
6.56720262015e-05
-3.61834709331e-10
6.56720008985e-05
-2.37867288732e-10
6.56719790397e-05
-1.44860993268e-10
6.5671963719e-05
-7.66354392892e-11
6.56719614326e-05
-2.85849401286e-11
6.56719592696e-05
6.9716121243e-12
6.56719511937e-05
4.33316312894e-11
6.56719405181e-05
6.83915766623e-11
6.5671927295e-05
8.83580883225e-11
6.56719125087e-05
1.05764346125e-10
6.56718961667e-05
1.21747303573e-10
6.56718781772e-05
1.36882096871e-10
6.56718584721e-05
1.5130141705e-10
6.56718375078e-05
1.64412652808e-10
6.5671817399e-05
1.74324350985e-10
6.56717971453e-05
1.83416610015e-10
6.56717772152e-05
1.88860074409e-10
6.56717587734e-05
1.88052754982e-10
6.56717438221e-05
1.77640023251e-10
6.5671736279e-05
1.52879193272e-10
6.56717437353e-05
1.08193711806e-10
6.56717477273e-05
4.22225697389e-11
6.56717844758e-05
-1.04206024675e-10
6.56718520523e-05
-3.63372048854e-10
6.56719521941e-05
-7.47797855739e-10
6.56721052324e-05
-1.32736626492e-09
6.56723185115e-05
-2.1988255433e-09
6.56726083822e-05
-3.48403285359e-09
6.56729918423e-05
-5.39009708737e-09
6.56734803339e-05
-8.23649541464e-09
6.56740715807e-05
-1.25098048401e-08
6.56747359776e-05
-1.89609486211e-08
6.5675388829e-05
-2.8755033145e-08
6.56758301571e-05
-4.36988986389e-08
6.56756336807e-05
-6.66166153871e-08
6.56739314062e-05
-1.01933605673e-07
6.56689917311e-05
-1.56571043145e-07
6.56572841425e-05
-2.41161253918e-07
6.56316855687e-05
-3.71902720057e-07
6.55780534233e-05
-5.72669234946e-07
6.54691699862e-05
-8.76543954925e-07
6.52558968337e-05
-1.32391446572e-06
6.48582381822e-05
-1.95185201099e-06
6.41638108678e-05
-2.77206121547e-06
-3.71397735962e-06
6.3082555495e-05
5.10850423758e-05
1.66764027674e-06
5.36118446109e-05
4.45458314986e-06
5.66873165303e-05
6.05635097473e-06
5.96894465787e-05
6.5231677126e-06
6.2299727274e-05
6.19218926801e-06
6.44136889998e-05
5.41801805662e-06
6.60471853689e-05
4.47638135285e-06
6.72686172302e-05
3.5440194286e-06
6.81598966453e-05
2.71437470134e-06
6.87977636701e-05
2.0238283391e-06
6.92467485047e-05
1.47505606835e-06
6.95579677967e-05
1.05370342749e-06
6.97704349222e-05
7.38832109244e-07
6.99131784621e-05
5.08761915357e-07
7.00073900848e-05
3.43919203542e-07
7.00683002204e-05
2.27918226008e-07
7.01067029347e-05
1.47692740278e-07
7.01301459986e-05
9.31770944983e-08
7.01438359598e-05
5.68194330846e-08
7.01513129423e-05
3.30745366131e-08
7.01549462848e-05
1.79455559655e-08
7.01562948854e-05
8.60046657353e-09
7.01563675295e-05
3.06253028592e-09
7.01557761528e-05
-1.69947322325e-11
7.01549158645e-05
-1.59767946803e-09
7.01539927564e-05
-2.24078447497e-09
7.01531245844e-05
-2.3584713239e-09
7.01523649778e-05
-2.19745124955e-09
7.01517311692e-05
-1.90930922976e-09
7.0151220303e-05
-1.58294387644e-09
7.01508194572e-05
-1.26688852099e-09
7.01505116634e-05
-9.84924865233e-10
7.01502792664e-05
-7.45973606293e-10
7.01501061039e-05
-5.50415985369e-10
7.01499792074e-05
-3.93922875954e-10
7.01498878906e-05
-2.70813830208e-10
7.01498250451e-05
-1.75426450331e-10
7.01497832257e-05
-1.03515509969e-10
7.01497542286e-05
-4.81643924035e-11
7.01497239072e-05
1.14399335813e-12
7.01496999403e-05
3.02308205737e-11
7.01496862649e-05
5.62028393948e-11
7.01496751546e-05
7.8578940395e-11
7.01496645631e-05
9.79446469292e-11
7.01496537837e-05
1.15504421818e-10
7.01496424393e-05
1.31996036327e-10
7.01496304405e-05
1.47751409344e-10
7.01496177983e-05
1.62745757763e-10
7.01496044216e-05
1.76600940959e-10
7.01495889214e-05
1.88656563085e-10
7.01495731671e-05
1.97978852789e-10
7.01495579894e-05
2.02768471943e-10
7.01495441555e-05
2.005356934e-10
7.0149532167e-05
1.88226459125e-10
7.01495215079e-05
1.62140765527e-10
7.01495092762e-05
1.18788183023e-10
7.01495035943e-05
4.6317944287e-11
7.01494900541e-05
-9.21807521728e-11
7.01495029607e-05
-3.77458355557e-10
7.01495271634e-05
-7.73199430311e-10
7.0149551788e-05
-1.35314464205e-09
7.01495559093e-05
-2.20378982319e-09
7.0149512854e-05
-3.44161089267e-09
7.01493691796e-05
-5.24740652582e-09
7.01490267978e-05
-7.89459047119e-09
7.01483105762e-05
-1.17940766069e-08
7.01469191598e-05
-1.75702286507e-08
7.0144341787e-05
-2.61785519229e-08
7.01397056119e-05
-3.90634757712e-08
7.01315309599e-05
-5.84424821814e-08
7.011732966e-05
-8.77325471746e-08
7.00929503329e-05
-1.32192008083e-07
7.00513096011e-05
-1.99520641023e-07
6.99804422735e-05
-3.01035850677e-07
6.98603973712e-05
-4.52624160761e-07
6.96587532382e-05
-6.74900360119e-07
6.93256356249e-05
-9.90797777263e-07
6.87915577111e-05
-1.41777373736e-06
6.79740243279e-05
-1.95452797335e-06
-2.55503682994e-06
6.68150833936e-05
5.08804132214e-05
7.87226964408e-07
5.31704662639e-05
2.16453007885e-06
5.62177498225e-05
3.0090673544e-06
5.94382698666e-05
3.30264764577e-06
6.24449697509e-05
3.18548937238e-06
6.50382533096e-05
2.82473455249e-06
6.71548670815e-05
2.35976769601e-06
6.88135658499e-05
1.88532084269e-06
7.00731721894e-05
1.45476861416e-06
7.10056695226e-05
1.09133128323e-06
7.1681266207e-05
7.9945968745e-07
7.21614259379e-05
5.73543972809e-07
7.24966071945e-05
4.0365105332e-07
7.27264840685e-05
2.78885215549e-07
7.28812832915e-05
1.8912014629e-07
7.29834733847e-05
1.2572829149e-07
7.30494175885e-05
8.17487733944e-08
7.30908201938e-05
5.17748052289e-08
7.3115914708e-05
3.17253143516e-08
7.31303998443e-05
1.85898632094e-08
7.31381551786e-05
1.01907060561e-08
7.31417761919e-05
4.97992043079e-09
7.31429644147e-05
1.87473624699e-09
7.31428184707e-05
1.29326303568e-10
7.31419956097e-05
-7.74511774781e-10
7.31409129788e-05
-1.15796540369e-09
7.31397983515e-05
-1.24370271893e-09
7.31387711284e-05
-1.17013338488e-09
7.31378837701e-05
-1.02189697591e-09
7.31371501886e-05
-8.49343199281e-10
7.31365629914e-05
-6.79727045431e-10
7.31361047984e-05
-5.26780753104e-10
7.31357547239e-05
-3.95997189878e-10
7.31354921298e-05
-2.8800288452e-10
7.31352986964e-05
-2.0072605086e-10
7.31351587846e-05
-1.31179588151e-10
7.31350591326e-05
-7.6086993814e-11
7.31349872238e-05
-3.19579130443e-11
7.31349335631e-05
5.04609810459e-12
7.31349033599e-05
3.08491388261e-11
7.31348796727e-05
5.32837259682e-11
7.31348621362e-05
7.30053317031e-11
7.31348490105e-05
9.08627516547e-11
7.31348384551e-05
1.0750746218e-10
7.31348292421e-05
1.2365524482e-10
7.31348204844e-05
1.39620474708e-10
7.31348116201e-05
1.55495580593e-10
7.31348021973e-05
1.71032150644e-10
7.31347919634e-05
1.85682385515e-10
7.31347809052e-05
1.98580674218e-10
7.31347690772e-05
2.08661113572e-10
7.31347565151e-05
2.140970032e-10
7.31347434042e-05
2.12380385198e-10
7.31347299942e-05
2.00253389194e-10
7.31347170853e-05
1.73703637737e-10
7.31347060231e-05
1.28367360085e-10
7.31346875992e-05
6.3237787754e-11
7.31346646062e-05
-7.06689615284e-11
7.31346233125e-05
-3.37454453111e-10
7.3134557753e-05
-7.08733683588e-10
7.31344444587e-05
-1.2407182123e-09
7.31342401349e-05
-2.00056141948e-09
7.31338772155e-05
-3.07941323584e-09
7.31332403809e-05
-4.61169159433e-09
7.31321372859e-05
-6.79241336205e-09
7.31302465214e-05
-9.90391155128e-09
7.31270405048e-05
-1.43646847388e-08
7.31216648135e-05
-2.0803389262e-08
7.31127081944e-05
-3.01075026948e-08
7.30978672742e-05
-4.36022893597e-08
7.30734350951e-05
-6.33010323393e-08
7.30335173533e-05
-9.22747124075e-08
7.29686061023e-05
-1.34609454421e-07
7.28636902529e-05
-1.96120112342e-07
7.26956139459e-05
-2.84548034889e-07
7.24298925937e-05
-4.09179230111e-07
7.20181893618e-05
-5.79094890426e-07
7.1399343051e-05
-7.98927821243e-07
7.05078543318e-05
-1.06303906658e-06
-1.34634877807e-06
6.92991662508e-05
5.07871726434e-05
5.42655769409e-11
5.29516499719e-05
5.27519621274e-11
5.5960688592e-05
2.86817653252e-11
5.92633220867e-05
1.4148614459e-11
6.24488086866e-05
2.79353929562e-12
6.52735493114e-05
-6.0167338085e-12
6.76333289649e-05
-1.1841297296e-11
6.95186647218e-05
-1.47302918361e-11
7.09734486952e-05
-1.51112826475e-11
7.20647938605e-05
-1.35855164144e-11
7.28642646293e-05
-1.07834377722e-11
7.34378162147e-05
-7.34711988882e-12
7.38414714195e-05
-3.94421378134e-12
7.41203580062e-05
-1.22111256074e-12
7.43094780445e-05
2.54172216747e-13
7.44352064597e-05
3.11512194692e-14
7.45169575745e-05
-2.11166213493e-12
7.45687386539e-05
-5.93970298664e-12
7.46004752038e-05
-1.08066957192e-11
7.46190812887e-05
-1.5719688291e-11
7.46292920752e-05
-1.95476812142e-11
7.46342937126e-05
-2.1197226079e-11
7.46361891298e-05
-2.02184211725e-11
7.46363367214e-05
-1.78878603058e-11
7.46355778795e-05
-1.53719398496e-11
7.46344323972e-05
-1.22738493678e-11
7.46331975671e-05
-8.73031850255e-12
7.4632032355e-05
-4.83009663318e-12
7.4631010556e-05
-3.96041832278e-14
7.46301572597e-05
3.99940591215e-12
7.46294689479e-05
8.57999448948e-12
7.46289286013e-05
1.34663700234e-11
7.46285138299e-05
1.86059261237e-11
7.46282015449e-05
2.40640821697e-11
7.46279705465e-05
3.00277605395e-11
7.46278024835e-05
3.66226180424e-11
7.46276821829e-05
4.39350228493e-11
7.46275979395e-05
5.19807178686e-11
7.46275417825e-05
6.08460863431e-11
7.46275021828e-05
6.99598445804e-11
7.46274753945e-05
7.94508080315e-11
7.46274575251e-05
9.01595231712e-11
7.46274456329e-05
1.01962478604e-10
7.46274374802e-05
1.14730564884e-10
7.46274315545e-05
1.28554516221e-10
7.46274268102e-05
1.43320867246e-10
7.46274225212e-05
1.58742312115e-10
7.46274181536e-05
1.74365187232e-10
7.46274132762e-05
1.89502086849e-10
7.46274075371e-05
2.03228598846e-10
7.46274007519e-05
2.14317953283e-10
7.46273926728e-05
2.20974079909e-10
7.46273829599e-05
2.2085374855e-10
7.46273708797e-05
2.10911206478e-10
7.46273552572e-05
1.87838233441e-10
7.46273344639e-05
1.4772900632e-10
7.46273081477e-05
8.81963789534e-11
7.46272614778e-05
-2.53981403674e-11
7.46271728375e-05
-2.50228927876e-10
7.46270369734e-05
-5.74144098775e-10
7.46268141461e-05
-1.01891690861e-09
7.46264436467e-05
-1.63098600119e-09
7.46258294462e-05
-2.46599093539e-09
7.46248147552e-05
-3.59785823335e-09
7.46231447635e-05
-5.12342339432e-09
7.4620403429e-05
-7.16346304863e-09
7.46159235098e-05
-9.88547297117e-09
7.46086481347e-05
-1.35285756557e-08
7.45968428774e-05
-1.83028230514e-08
7.45777088656e-05
-2.44686146256e-08
7.45468267347e-05
-3.24194440585e-08
7.44974727816e-05
-4.29209385338e-08
7.44189190416e-05
-5.60557668743e-08
7.42947772721e-05
-7.19785320654e-08
7.41006841094e-05
-9.04549974844e-08
7.38018453841e-05
-1.10340718263e-07
7.33516347675e-05
-1.28883900855e-07
7.26936262593e-05
-1.40920032232e-07
7.17698542859e-05
-1.39267365779e-07
-1.15446399607e-07
7.05389520543e-05
5.07871716161e-05
-7.87117390727e-07