/*--------------------------------*- C++ -*----------------------------------*\
| =========                 |                                                 |
| \\      /  F ield         | OpenFOAM: The Open Source CFD Toolbox           |
|  \\    /   O peration     | Version:  2106                                  |
|   \\  /    A nd           | Website:  www.openfoam.com                      |
|    \\/     M anipulation  |                                                 |
\*---------------------------------------------------------------------------*/
FoamFile
{
    version     2.0;
    format      ascii;
    arch        "LSB;label=32;scalar=64";
    class       volScalarField;
    location    "0.485";
    object      p;
}
// * * * * * * * * * * * * * * * * * * * * * * * * * * * * * * * * * * * * * //

dimensions      [0 2 -2 0 0 0 0];

internalField   nonuniform List<scalar> 
11200
(
150.100725974
147.172124697
146.058275295
145.530946488
145.163620147
144.868846082
144.607207485
144.358675066
144.114163519
143.869103139
143.620796725
143.367489578
143.107949693
142.841241448
142.566597941
142.28334568
141.990858754
141.688531011
141.375763413
141.051967933
140.716520362
140.368771619
140.008063079
139.633726805
139.245077071
138.841412428
138.422016576
137.986159046
137.533095987
137.062070789
136.572314605
136.063046655
135.533474607
134.982794638
134.410191771
133.814841601
133.195909917
132.552553048
131.883918095
131.189143804
130.467360501
129.717690639
128.939248722
128.131141211
127.292466646
126.422315416
125.519769077
124.583899867
123.613769481
122.608427624
121.566909804
120.488234535
119.371399565
118.215377132
117.019107779
115.781492432
114.501382702
113.177568208
111.808760747
110.393574578
108.930501603
107.41787898
105.853849536
104.236312804
102.562859041
100.830682798
99.0364736093
97.1762710221
95.2452704747
93.2375570193
91.1457414807
88.9604641269
86.6695257038
84.2567398306
81.700020778
78.9677085675
76.0122031434
72.7609263934
69.060145642
64.296843049
148.307683888
146.949510289
146.158540294
145.658528417
145.267543545
144.943665271
144.659149234
144.394552871
144.139071616
143.886557035
143.633181754
143.376432181
143.114571266
142.846322506
142.570685394
142.28682503
141.994003956
141.69153914
141.378772078
141.05504061
140.719694548
140.372058092
140.011487343
139.637314024
139.248841995
138.845364096
138.426161175
137.990500953
137.537638285
137.066815577
136.577263057
136.068198377
135.538827236
134.988349499
134.415952179
133.820810705
133.202090822
132.558948592
131.890531248
131.195977625
130.474418262
129.72497576
128.946764921
128.138892716
127.300458219
126.43055258
125.528258339
124.592648857
123.622787435
122.617725653
121.576501374
120.498136012
119.38163102
118.225963271
117.03007898
115.792886129
114.513245038
113.189956232
111.821745123
110.407242784
108.944962619
107.433269316
105.870339391
104.25411014
102.582213863
100.851910245
99.0599833453
97.2025953137
95.2751065031
93.2718320756
91.1857029299
89.0077624112
86.7264628767
84.3266685133
81.7879843085
79.081902163
76.1676243775
72.9873170008
69.4381904414
65.3253959105
147.312493659
146.658293813
146.10593958
145.668324257
145.296703802
144.974606314
144.685511549
144.415283585
144.154827335
143.898353901
143.641978233
143.383018616
143.119562998
142.85018438
142.573761583
142.289365941
141.996187713
141.693488084
141.380568773
141.056752606
140.721377428
140.373803458
140.013286508
139.639172754
139.250769959
138.847368407
138.428246663
137.992671369
137.53989704
137.069166305
136.579710272
136.070748977
135.541491326
134.991129914
134.418846866
133.823819855
133.20521585
132.562191426
131.893894721
131.199465269
130.478034551
129.728726154
128.950655936
128.142932259
127.304655737
126.434919371
125.53280821
124.597398338
123.627756505
122.622938565
121.581987687
120.503931727
119.387779972
118.232519038
117.037106961
115.800466166
114.521474667
113.19895483
111.831659081
110.418251604
108.957285868
107.447175225
105.886155476
104.272259068
102.60324862
100.876529639
99.0890602835
97.2372417462
95.3167596613
93.3223754931
91.2476395054
89.0844885802
86.8228278554
84.4497418296
81.9485101409
79.2972734639
76.4680590412
73.4292530742
70.1448798975
66.5919206539
146.762732675
146.39935193
145.999455372
145.630467207
145.292853544
144.984754875
144.69939606
144.428697387
144.16633143
143.90767117
143.649298515
143.388681877
143.123921432
142.853549848
142.576391001
142.29146233
141.997907145
141.694949475
141.381861949
141.057944375
140.722505723
140.374855645
140.014352797
139.640273859
139.251907988
138.848547347
138.429470249
137.993942112
137.541216355
137.070534517
136.581126511
136.072210618
135.542993885
134.992674869
134.420443058
133.825472525
133.206931114
132.563976126
131.895754793
131.201407173
130.480065609
129.730854684
128.952891644
128.145286818
127.307143204
126.43755662
125.535615631
124.600400791
123.630984137
122.626428002
121.585783342
120.508087536
119.392361626
118.237606504
117.042797913
115.806880255
114.52875858
113.207288482
111.841263244
110.42939763
108.97031071
107.462504177
105.904317921
104.293892638
102.629127378
100.907623302
99.1266047275
97.2828192945
95.3724138335
93.3907784366
91.3323559153
89.1904165493
86.9567287472
84.6212510836
82.1718955986
79.5945647888
76.8745135065
74.0020364741
70.9807331721
67.8477845057
146.428685061
146.196890189
145.895479203
145.584504288
145.279667612
144.987647784
144.708676551
144.439555631
144.176601376
143.916523586
143.656561789
143.394478519
143.128481238
142.857120778
142.579200496
142.293703304
141.999736387
141.696490443
141.38321008
141.059172484
140.723672596
140.376013959
140.015500097
139.641420297
139.253077288
138.84975463
138.430725403
137.995252592
137.54258829
137.071973447
136.582637977
136.073800905
135.544669813
134.994441295
134.422301303
133.827425736
133.208979662
132.566121091
131.898000441
131.203758221
130.482529286
129.733440515
128.955611631
128.148155804
127.310179313
126.440781796
125.539056474
124.604089503
123.634959673
122.630737403
121.590484149
120.51324995
119.398071269
118.243967746
117.049937872
115.814953215
114.537951407
113.217829003
111.853428664
110.443531306
108.986834077
107.48192594
105.927269624
104.321170979
102.661736488
100.946824026
99.1739856791
97.3403993002
95.4427852669
93.4773092347
91.4394743101
89.3240158121
87.1248252112
84.8349841299
82.4470729283
79.9540828436
77.3518173162
74.6447191448
71.8541483075
69.0308009547
146.225292941
146.049391521
145.808198163
145.540874545
145.263690436
144.987055768
144.715370476
144.44887403
144.186114827
143.925112732
143.663832763
143.400407851
143.133212437
142.86085562
142.582144617
142.296041517
142.001624173
141.698053074
141.384545405
141.060355196
140.724758876
140.377044443
140.016502381
139.642422857
139.254095198
138.850798551
138.431803355
137.996370497
137.543750589
137.073183326
136.583897588
136.075111283
135.546031799
134.995855562
134.423769196
133.828949707
133.210565334
132.567775799
131.899732262
131.205579034
130.484451895
129.735478495
128.95778063
128.150474043
127.312668504
126.443468124
125.541971709
124.607272311
123.6384571
122.634607056
121.594795397
120.518086884
119.403536045
118.250184508
117.05705785
115.823162018
114.547479351
113.228956828
111.866504983
110.458973425
109.00514688
107.503733314
105.953349583
104.352479857
102.699457112
100.992431399
99.2293315032
97.4078236698
95.525267793
93.5786778354
91.5646976288
89.4796154016
87.3194647564
85.0803047732
82.7588513769
80.3537529147
77.8680770811
75.3139774095
72.7184021514
70.1284472279
146.102176522
145.946569552
145.740269172
145.503709326
145.248237276
144.9849619
144.720353748
144.456851186
144.194724911
143.933147025
143.670783419
143.40615757
143.137839547
142.864520833
142.585029159
142.2983169
142.003439053
141.699529652
141.385780594
141.061423803
140.725717315
140.377934574
140.017356654
139.643265927
139.254943447
138.851663401
138.43269334
137.99729197
137.544708344
137.074181324
136.584939251
136.076200136
135.54717147
134.997050435
134.425024905
133.83027277
133.211962736
132.569255303
131.9013026
131.207248301
130.486228004
129.73737325
128.959810261
128.152658962
127.315033855
126.446044507
125.544796025
124.610389292
123.641920955
122.638483336
121.599163737
120.523044323
119.409200834
118.256700713
117.064600685
115.831943784
114.557754164
113.241038324
111.880769532
110.475889101
109.025295546
107.527828971
105.982260735
104.38727855
102.741470664
101.043307748
99.2911251994
97.4831092031
95.6172898712
93.6915525099
91.7036826775
89.6514743349
87.5329479702
85.346771217
83.0930130008
80.7744313687
78.3985750877
75.9810413479
73.548705525
71.140922475
146.028097135
145.878087686
145.69133356
145.475230602
145.235527928
144.982711133
144.724079559
144.463348006
144.201988963
143.940075935
143.676868003
143.411241654
143.141956213
142.867790462
142.587600806
142.300337352
142.00503855
141.700816958
141.386842918
141.062329119
140.726517455
140.378668472
140.01805314
139.643945833
139.255622689
138.852352976
138.433401482
137.998024845
137.545470661
137.074977202
136.585772128
136.077073351
135.548088626
134.998015362
134.426041501
133.831345484
133.213096969
132.570456918
131.902578481
131.208608261
130.487687864
129.738951092
128.961525027
128.154532882
127.317094011
126.448323797
125.547334437
124.61323529
123.64513346
122.642134
121.603340137
120.527852857
119.414770653
118.263188673
117.072197687
115.840882834
114.568322187
113.253580923
111.895713242
110.493749573
109.046699027
107.553542218
106.013225344
104.424651722
102.786676932
101.09810539
99.3576914629
97.5641491527
95.7161768163
93.8125093743
91.852014115
89.833861025
87.7578043916
85.6246569281
83.4370314158
81.200461926
78.9249845616
76.6272027232
74.3317956915
72.0707696095
145.985820922
145.836373928
145.659959924
145.456224342
145.22669538
144.980991864
144.726637928
144.46800672
144.207308171
143.945223101
143.681435581
143.415087553
143.145087477
142.870286614
142.589568146
142.301883862
142.006261664
141.701798957
141.387650293
141.063013966
140.727119689
140.379218136
140.018572576
139.644452321
139.256126163
138.852863274
138.4339254
137.998567403
137.546035879
137.075568398
136.586392527
136.077725986
135.548776738
134.998742695
134.426812257
133.83216478
133.21397105
132.571393782
131.903588517
131.209704059
130.488880877
129.740256166
128.96296216
128.15612653
127.318873599
126.450324957
125.54960033
124.615818393
123.648097441
122.645556152
121.60731402
120.532492146
119.420213574
118.269603109
117.079787953
115.849896612
114.579059172
113.266407637
111.911072819
110.512186256
109.068876819
107.580270754
106.04549294
104.46366677
102.833919072
101.155389278
99.4272466498
97.6487197276
95.8191454661
93.9380508081
92.0052807405
90.0212016346
87.9870091039
85.9051944423
83.7802035716
81.6193321609
79.4338302075
77.2401076118
75.0602082278
72.9203094125
145.966544476
145.816667295
145.644705954
145.446773198
145.222215706
144.980101671
144.72797281
144.470471333
144.210152688
143.948000878
143.683920523
143.417195711
143.146816799
142.871676232
142.590673293
142.302761769
142.006964611
141.702371372
141.388128274
141.063425928
140.727487477
140.379558254
140.018897291
139.644770629
139.256445666
138.853188873
138.434261079
137.998916358
137.54640094
137.075952206
136.586797712
136.078155316
135.549233341
134.999230314
134.427335319
133.832728687
133.214582394
132.572060529
131.904319907
131.210510541
130.489777328
129.74126002
128.964094024
128.157411357
127.320341574
126.452012859
125.551552764
124.61808946
123.650752896
122.648675761
121.610994722
120.536851742
119.425394993
118.275780123
117.087171255
115.858742723
114.589680292
113.279181878
111.926460195
110.530746287
109.091288719
107.60736105
106.078267253
104.503349835
102.882002617
101.213691278
99.4979828936
97.7345906153
95.923439603
94.0647675247
92.1592662962
90.2083047581
88.2142231931
86.1807750822
84.1136676977
82.021245684
79.9152329445
77.8113817562
75.7293815493
73.6911551703
145.966546905
145.816683179
145.644732803
145.446809312
145.222260339
144.980154063
144.728032074
144.470536672
144.210223349
143.94807628
143.68400008
143.417279001
143.146903472
142.871766038
142.590766095
142.30285752
142.007063319
141.702473139
141.388233256
141.063534339
140.727599575
140.379674371
140.019017833
139.644896156
139.25657691
138.853326604
138.434406226
137.999070179
137.546564785
137.07612756
136.586986601
136.078360147
135.549457017
134.999476331
134.427607989
133.833033248
133.214925211
132.572449375
131.904764234
131.211022368
130.490370808
129.741952229
128.964905766
128.158367894
127.321473597
126.453357518
125.553155274
124.620004718
123.653047501
122.651430582
121.614307965
120.54084265
119.430208199
118.281591159
117.094193274
115.867233956
114.59995391
113.291617404
111.941518582
110.548988237
109.113392863
107.634151101
106.110741685
104.542719208
102.929733453
101.271557266
99.5681234561
97.8195811651
96.0263755164
94.1893566721
92.3099511481
90.3904626049
88.43400589
86.4452014917
84.4305648207
82.398996371
80.3622829345
78.3354404815
76.3363705044
74.384165525
145.985828286
145.836421983
145.660041067
145.456333424
145.226830153
144.981149796
144.726816325
144.468203154
144.207520485
143.945449483
143.681674382
143.41533752
143.145347576
142.870556111
142.589846618
142.302171117
142.006557789
141.702104227
141.387965162
141.063339046
140.727455776
140.379566209
140.018933881
139.644828577
139.256519457
138.853275962
138.434360194
137.999027794
137.546525859
137.076092748
136.586957134
136.078337935
135.54944457
134.999476901
134.427625707
133.833073235
133.214993698
132.572554033
131.90491454
131.211229693
130.490649096
129.742318398
128.965380388
128.158975836
127.322245114
126.454329376
125.554372013
124.621520501
123.654928046
122.653755637
121.61717445
120.544368009
119.434535054
118.286892374
117.100678397
115.875157183
114.609623096
113.303406256
111.95587917
110.566464688
109.134649572
107.659987929
106.142123985
104.580809809
102.975930687
101.327542161
99.6359290188
97.9016773644
96.1256765874
94.3093010224
92.4545287909
90.5640414781
88.6418146111
86.6931081886
84.7249140369
82.7463837519
80.7691909629
78.8077389536
76.8787432301
74.9996432414
146.028109632
145.878169064
145.691470659
145.475414492
145.235754674
144.982976303
144.724378602
144.46367677
144.20234391
143.940454009
143.677266571
143.41165857
143.142389901
142.868239727
142.588064927
142.300816037
142.005531894
141.701325416
141.387367217
141.062870288
140.727076824
140.379247713
140.018654305
139.644571761
139.256276563
138.853038782
138.43412378
137.998789215
137.546283794
137.07584683
136.586707963
136.078086953
135.549193916
134.999229519
134.427385408
133.83284478
133.214783048
132.572368457
131.904762991
131.211123164
130.490601007
129.742345003
128.96550135
128.159215144
127.322631847
126.454898839
125.555167111
124.622593305
123.656341785
122.655587112
121.619516898
120.547334553
119.438262698
118.291547126
117.106461248
115.882311749
114.618444097
113.3142505
111.969177337
110.582737561
109.154522637
107.684219865
106.171629359
104.616691075
103.019519029
101.380428493
99.6999746369
97.9790142744
96.2188674022
94.4213488145
92.5889135808
90.7248234636
88.8333866151
86.9202046756
84.992496752
83.0594335361
81.1324558393
79.2255089331
77.3547233459
75.5370122245
146.102194586
145.946686434
145.740465374
145.50397149
145.248559477
144.985337585
144.720776299
144.457314785
144.195224587
143.933678511
143.671343147
143.406742599
143.13844769
142.865150469
142.585679325
142.298987188
142.004129572
141.700241006
141.386513715
141.062180035
140.726498475
140.378743045
140.018195425
139.644138727
139.255854661
138.852618395
138.433698525
137.998354901
137.545838131
137.075388795
136.586237616
136.077605297
135.548702732
134.998731357
134.426883665
133.832343791
133.214288175
132.571886461
131.904302202
131.210693846
130.490215636
129.742018773
128.96525269
128.15906642
127.322610313
126.455037533
125.555506166
124.623181476
123.657238277
122.656863973
121.621261325
120.549652317
119.441282048
118.295423104
117.111381808
115.888504294
114.626183631
113.323869573
111.981078311
110.597404567
109.172539475
107.706287805
106.198588705
104.649542495
103.059441349
101.428823296
99.758523209
98.049724769
96.3040392719
94.5236082443
92.7112294397
90.8705026574
89.0060094714
87.1235234345
85.2302741859
83.3352445548
81.4495136123
79.5866499598
77.7626625784
75.9949593996
146.225317295
146.049547677
145.808458766
145.541220879
145.264114092
144.987547763
144.715921952
144.449477419
144.186763739
143.925801762
143.664557457
143.401164588
143.133998479
142.861669054
142.582984111
142.296906556
142.002514866
141.698970017
141.385489576
141.061327942
140.725761858
140.378080027
140.017575452
139.643539661
139.255260783
138.852019147
138.433086558
137.997725526
137.545188543
137.074717599
136.585544509
136.076890879
135.547968404
134.997979329
134.426116903
133.831566186
133.213504522
132.571102741
131.903525768
131.209933725
130.489482992
129.741327238
128.964618985
128.158510936
127.322157779
126.454718017
125.555356172
124.623245299
123.657569702
122.657528339
121.622337896
120.551236773
119.443490554
118.298396092
117.115289095
115.893551166
114.632618358
113.331991484
111.991248618
110.610059303
109.188201169
107.725581489
106.222262063
104.678489586
103.094731232
101.471715626
99.8104853597
98.1124619169
96.3795199201
94.6140723119
92.8191740412
90.9986421495
89.1572001291
87.3006381794
85.4360180106
83.5719325729
81.7188958182
79.8899880507
78.1012389941
76.3713214629
146.428716371
146.197090542
145.89581075
145.584941883
145.280199671
144.988262376
144.709362466
144.440303537
144.177403531
143.917373554
143.657454318
143.395409457
143.129447408
142.858120035
142.580231509
142.294765618
142.000830357
141.697616914
141.384370101
141.060367424
140.724904408
140.37728428
140.016811438
139.642786566
139.254502894
138.851245856
138.432290759
137.996902572
137.544335525
137.073832954
136.584627662
136.075942058
135.546988586
134.996970218
134.425080979
133.830506814
133.212426139
132.570010867
131.902427177
131.208836472
130.488396639
129.7402635
128.963592045
128.157538186
127.321260491
126.453922188
125.554693545
124.622754514
123.657297808
122.657532286
121.622686816
120.552014687
119.444799041
118.300358355
117.118054005
115.897298483
114.637564557
113.338396691
111.999426197
110.620385789
109.201128712
107.741651759
106.24212165
104.702906206
103.1246124
101.508129411
99.8546804799
98.1658820248
96.4438128047
94.6910904871
92.9109565232
91.107368638
89.285101018
87.4498499753
85.6083676296
83.7686480397
81.9403124872
80.1355154904
78.3697722312
76.6629376387
146.762771001
146.399600227
145.999860461
145.630996544
145.293491602
144.985486337
144.700207241
144.429577229
144.167270944
143.908663006
143.650336757
143.389761923
143.125039858
142.854704463
142.577580798
142.292687507
141.999169387
141.696251248
141.383206474
141.059335888
140.723953715
140.376376326
140.015919561
139.641890401
139.253588761
138.850304213
138.431315298
137.995889222
137.543281688
137.072737136
136.583489194
136.074760847
135.545765042
134.995705077
134.423775505
133.829162913
133.211046732
132.568599829
131.900989478
131.207378892
130.486927824
129.738793683
128.962133648
128.156106215
127.319873055
126.452601242
125.553465806
124.621652356
123.656360251
122.656807266
121.62223165
120.551898794
119.44510628
118.301190255
117.119532878
115.899571932
114.640811986
113.342835112
112.005316261
110.628040461
109.210922815
107.754032812
106.25762183
104.722156352
103.148355995
101.537237215
99.8901645811
98.2089077571
96.495704677
94.7533276908
92.9851521369
91.1952244867
89.388321134
87.5699928358
85.7466046697
83.9253740651
82.1146034153
80.3246746783
78.5688037112
76.8656439338
147.312543894
146.658604319
146.106428343
145.668950803
145.297448886
144.975451316
144.686440564
144.416284057
144.155889205
143.89946897
143.643139883
143.384221574
143.120803182
142.851458788
142.575068309
142.290704161
141.99755803
141.694893514
141.382014647
141.058245849
140.722918918
140.375363491
140.014900447
139.640849519
139.252515192
138.849190268
138.430155912
137.994681136
137.542023115
137.071427308
136.58212796
136.073348698
135.544303038
134.994194846
134.422219214
133.827562901
133.209404465
132.566918028
131.899271914
131.20562952
130.485151543
129.736997387
128.960326149
128.154298443
127.318078504
126.450836565
125.551751349
124.620012934
123.654826233
122.655414185
121.621024052
120.550930765
119.44444322
118.300911311
117.119733771
115.90036785
114.64234007
113.345260863
112.008838657
110.632898164
109.217401478
107.762473474
106.268430272
104.735813818
103.16542966
101.558391445
99.9161708508
98.2406513719
96.5341864039
94.7996620508
93.0405513417
91.260963786
89.4656726761
87.660106426
85.8502827043
84.0425900599
82.2436891441
80.4611402079
78.7020582869
76.9751406042
148.307781461
146.949966397
146.159221878
145.65938293
145.26854827
144.944799786
144.66039676
144.395900321
144.140508525
143.888074847
143.634773463
143.378091975
143.116294229
142.848104287
142.572521886
142.288711975
141.995936343
141.693510513
141.380777163
141.057087631
140.721782214
140.374211503
140.013723247
139.639634063
139.251252165
138.847873785
138.428781696
137.993243921
137.540519236
137.069854658
136.580485033
136.071634339
135.542516294
134.992335159
134.420286368
133.825557588
133.207330258
132.564777447
131.897067531
131.203365021
130.482831522
129.734627052
128.957911715
128.151847479
127.315600327
126.448342651
125.549255627
124.617532389
123.652381464
122.653030804
121.618732516
120.548767869
119.442453481
118.299148271
117.118262258
115.899266511
114.641704849
113.345206469
112.009502489
110.634444816
109.220028003
107.766414322
106.273963545
104.743267321
103.175187801
101.570902266
99.9319522327
98.2602955428
96.558358677
94.8291161377
93.0761155213
91.3035245031
89.5161482305
87.7194038594
85.9191885613
84.121369596
82.3314763865
80.5542722142
78.7845614164
76.9928422655
150.100890091
147.172793377
146.05926772
145.532200716
145.165106291
144.870539841
144.609090471
144.360733678
144.116387573
143.871485095
143.62333124
143.370173301
143.110781201
142.844221363
142.569729119
142.28663321
141.994309939
141.69215468
141.379564917
141.055932888
140.720653434
140.373086428
140.012562844
139.638417436
139.249967948
138.846515015
138.427344696
137.991731666
137.538933547
137.068195754
136.578753154
136.069829908
135.540639787
134.990387094
134.418267317
133.823467826
133.205168859
132.562544599
131.894763975
131.200991857
130.480390263
129.7321198
128.955341209
128.149217297
127.312915074
126.445607983
125.546478422
124.614721409
123.649547301
122.65018617
121.615892976
120.545952371
119.439684869
118.296454168
117.115676005
115.896828105
114.639461803
113.343216385
112.007834745
110.633182335
109.219270007
107.766278825
106.274591313
104.744825643
103.177874505
101.574950569
99.9376351766
98.2679354652
96.5683485064
94.8418798189
93.0921343861
91.3233485837
89.5404117804
87.748842655
85.9546869926
84.1644419492
82.3845280891
80.6197285391
78.8495845314
76.9496487424
56.9027920571
53.3506660968
50.9592421944
49.001837874
47.3298087051
45.8729804746
44.5873663645
43.4432579301
42.4189818807
41.4977926842
40.6662851019
39.9134549355
39.2301028113
38.6084329222
38.0417677788
37.5243404494
37.0511361225
36.6177686488
36.220382093
35.8555720263
35.5203222923
35.2119497198
34.9280606824
34.6665132294
34.4253862858
34.2029517842
33.997650815
33.8080757125
33.6329519999
33.4711223344
33.3215343781
33.1832293252
33.0553315565
32.9370406409
32.8276224856
32.7264027135
32.6327609169
32.5461263205
32.4659732568
32.3918150588
32.3232004808
32.2597104162
32.2009555926
32.1465718643
32.0962172827
32.049568269
32.0063287368
31.9663063468
31.929469449
31.895454891
31.8639979393
31.834866938
31.8078815948
31.782846844
31.7596132582
31.7380586161
31.7180432471
31.6994442306
31.6821438529
31.6660372072
31.651026778
31.6370276221
31.6239436075
31.6116940975
31.6002071563
31.5894165828
31.5792604171
31.5696837163
31.5606335438
31.5520608652
31.5439214204
31.5361769327
31.5287893704
31.5217255754
31.5149525276
31.5084442878
31.5021726151
31.4961126937
31.4902434835
31.4845447297
31.4790022419
31.4736043251
31.4683344576
31.4631754939
31.4581194459
31.4531471108
31.4482528089
31.4434257553
31.4386705337
31.4339830817
31.4293362162
31.4247219177
31.4201359862
31.4155705601
31.4110201328
31.4064808792
31.4019479973
31.3974160867
31.3928808378
31.3883387459
31.3837862073
31.3792208357
31.3746403025
31.3700417852
31.3654220984
31.3607779822
31.3561062866
31.3514040506
31.3466686615
31.3418984606
31.3370914164
31.3322459923
31.3273589281
31.3224280349
31.3174505474
31.3124237586
31.3073451817
31.3022135279
31.2970288718
31.2917929092
31.2865075019
31.2811738482
31.2757916943
31.270353476
31.2648353148
31.2591878081
31.2535931199
31.2485194557
31.2434069988
31.2382292158
31.2330978522
31.2280944691
31.223272691
31.2186887862
31.2144016978
31.2104686265
31.2069390838
31.2038533553
31.2012089348
31.1990085188
31.1973350569
31.1959448759
31.19468513
31.192968744
31.1891405847
31.1789955967
31.1524679664
31.0879071173
30.9440544001
30.6503660092
30.1016263507
29.1650596125
27.7080818036
25.6380045179
22.9288268099
19.6366436876
15.8799617592
11.6269386975
6.60235390886
1.57012430831
60.0841430134
56.031335871
53.3193629516
51.1670149175
49.3650732662
47.8151269075
46.4589597771
45.2593353175
44.1900795316
43.2315596282
42.3684378973
41.5883708262
40.8812071755
40.2384600529
39.6529405479
39.1184989109
38.6298290884
38.1823199113
37.7719399485
37.3951455827
37.0488084114
36.7301536868
36.4367122195
36.1662788097
35.9168778961
35.6867338471
35.4742475989
35.2779743035
35.096606696
34.9289580268
34.7739490047
34.6305952544
34.497998653
34.3753371755
34.2618569491
34.1568649824
34.0597243282
33.969848247
33.8866975182
33.8097724917
33.7386114535
33.6727872695
33.6119061391
33.5556039441
33.5035457166
33.4554238412
33.4109520478
33.3698383689
33.3317004203
33.2964317162
33.2637719176
33.2335383039
33.2055451639
33.1796204482
33.155598637
33.1333225696
33.1126513736
33.0934552966
33.0756137796
33.0590124334
33.0435438629
33.0291052517
33.0156184137
33.0030039652
32.9911865022
32.9800976486
32.9696726746
32.9598543999
32.9505865751
32.9418199035
32.9335073321
32.9256082713
32.9180832772
32.9108976624
32.9040172937
32.8974131303
32.8910590658
32.8849264862
32.8789965868
32.8732466451
32.8676547023
32.8621981851
32.8568644686
32.8516420211
32.846516851
32.8414784232
32.8365195287
32.8316251002
32.8267839058
32.8219890539
32.8172342102
32.8125130285
32.8078226331
32.8031558891
32.7985070034
32.7938715869
32.7892442539
32.7846207307
32.7799953896
32.7753648387
32.770726429
32.7660771743
32.7614146057
32.7567364516
32.7520393673
32.7473201148
32.7425750568
32.7378012831
32.7329964501
32.7281578018
32.7232836838
32.7183720615
32.7134199853
32.7084246533
32.7033836624
32.6982945023
32.6931545809
32.6879633089
32.6827216158
32.6774319359
32.6720977757
32.666723006
32.6613123275
32.6558722348
32.6504142741
32.6449630754
32.6395536731
32.6341417448
32.628627906
32.6234539304
32.6183528767
32.6134078589
32.608701504
32.6042960706
32.6002603003
32.5966658405
32.593580145
32.5910611449
32.5890821644
32.5878053235
32.5870856504
32.5868292449
32.5867335211
32.5859918313
32.5824232803
32.5708408481
32.5391914568
32.4625641925
32.2947326212
31.958827813
31.3435221517
30.3130498631
28.737932308
26.5353040731
23.6910483798
20.2657580382
16.3759369901
12.0050016137
6.89150492504
1.70368412398
62.2915756682
58.3581420218
55.4909999335
53.2070755528
51.3051109966
49.6786275798
48.2625913109
47.0149851625
45.9063872499
44.9149370285
44.0237393752
43.2193425471
42.490793134
41.8290165673
41.2263871267
40.6764275797
40.1735826276
39.713049767
39.2906480096
38.9027161655
38.5460318686
38.2177437454
37.9153188303
37.6364989181
37.3792637021
37.1417979075
36.9224679867
36.7197986085
36.532454448
36.3592231968
36.1990023134
36.0507858219
35.9136549528
35.786768517
35.6693546985
35.5607040107
35.4601644
35.3671340955
35.2810588738
35.2014251639
35.1277580085
35.059617081
34.9965960096
34.938316032
34.8844247714
34.8345940283
34.7885227128
34.7459401986
34.7065600018
34.6700169744
34.6361695529
34.6048710846
34.5759147384
34.5491078696
34.5242787483
34.5012682648
34.4799295947
34.460126585
34.4417334115
34.424632144
34.4087155324
34.3938745385
34.3800235151
34.3670770896
34.3549564867
34.3435910777
34.332912599
34.322862715
34.3133833012
34.3044226673
34.2959325295
34.2878718955
34.2801980292
34.2728753406
34.2658686408
34.2591479899
34.252687286
34.2464533368
34.2404216789
34.2345722073
34.2288883107
34.2233580389
34.2179628798
34.2126892958
34.2075172585
34.2024370054
34.1974405724
34.1925107892
34.1876459761
34.1828357772
34.1780664217
34.1733324278
34.1686311251
34.1639522715
34.1592903028
34.1546411736
34.1499988281
34.1453580755
34.1407132683
34.1360619296
34.1314010671
34.1267268838
34.1220373238
34.1173302905
34.1126021163
34.1078500929
34.1030708327
34.0982609635
34.0934178985
34.088539223
34.0836228215
34.0786665971
34.0736677677
34.0686234736
34.0635318529
34.058390466
34.053197461
34.0479530818
34.0426586645
34.0373165618
34.0319309346
34.0265063803
34.0210495293
34.0155691477
34.0100809539
34.0046019063
33.9991341584
33.9937191214
33.9884538452
33.9831546931
33.9780024425
33.9730446648
33.9684088235
33.964149062
33.9603294796
33.9570353983
33.9543545825
33.9523764463
33.9510704652
33.950456923
33.9506069612
33.9513109017
33.9521631074
33.95209566
33.9483534118
33.9347070036
33.8970897719
33.8073228925
33.6144170393
33.2356658985
32.5544693991
31.4330241962
29.7454095598
27.4178686441
24.4464038728
20.8942925084
16.8747223525
12.385612958
7.18027355895
1.83503644861
64.0957525174
60.371044101
57.4670624721
55.111885511
53.1417905726
51.457436854
49.9936606364
48.7065792581
47.5649452367
46.5454334329
45.6300318418
44.8044526931
44.0571180497