/*--------------------------------*- C++ -*----------------------------------*\
| =========                 |                                                 |
| \\      /  F ield         | OpenFOAM: The Open Source CFD Toolbox           |
|  \\    /   O peration     | Version:  2106                                  |
|   \\  /    A nd           | Website:  www.openfoam.com                      |
|    \\/     M anipulation  |                                                 |
\*---------------------------------------------------------------------------*/
FoamFile
{
    version     2.0;
    format      ascii;
    arch        "LSB;label=32;scalar=64";
    class       volVectorField;
    location    "0.415";
    object      U;
}
// * * * * * * * * * * * * * * * * * * * * * * * * * * * * * * * * * * * * * //

dimensions      [0 1 -1 0 0 0 0];

internalField   nonuniform List<vector> 
11200
(
(0.662462410817 0.150569436219 0)
(0.558948707898 0.103243383559 0)
(0.383850810222 0.0513512194697 0)
(0.283747704077 0.0248708504044 0)
(0.232075415086 0.0124170405892 0)
(0.20190876814 0.00662281260147 0)
(0.18319814989 0.00380291065676 0)
(0.171276738935 0.00231586680146 0)
(0.163510587414 0.00146450371252 0)
(0.158389078593 0.000944889881122 0)
(0.155006965046 0.00061517454125 0)
(0.152787032911 0.00040223153067 0)
(0.151346904064 0.000264229955388 0)
(0.150428687544 0.000175247837084 0)
(0.149857103658 0.000118358254249 0)
(0.149512922992 8.21573288058e-05 0)
(0.14931538357 5.88628430958e-05 0)
(0.149210042941 4.33124098036e-05 0)
(0.149160205257 3.29315694063e-05 0)
(0.149142987081 2.81829526398e-05 0)
(0.149145163412 2.76806516515e-05 0)
(0.149157458402 2.98867996074e-05 0)
(0.149173098535 3.30474863939e-05 0)
(0.149188663852 3.59632871364e-05 0)
(0.149202889753 3.85991620508e-05 0)
(0.149215176175 4.10386529316e-05 0)
(0.149225354711 4.3316372183e-05 0)
(0.149233531317 4.54634762977e-05 0)
(0.149239941848 4.75191680913e-05 0)
(0.149244867877 4.95303537158e-05 0)
(0.149248594345 5.15588391561e-05 0)
(0.149251388874 5.36955361425e-05 0)
(0.14925344922 5.60233916705e-05 0)
(0.149254946579 5.84041468382e-05 0)
(0.149256014824 6.07649738723e-05 0)
(0.149256741601 6.30860563363e-05 0)
(0.14925722418 6.53775050911e-05 0)
(0.149257546409 6.76525575834e-05 0)
(0.149257761367 6.99224415716e-05 0)
(0.149257897507 7.21934593792e-05 0)
(0.149257975754 7.44664327815e-05 0)
(0.149258012489 7.67421660699e-05 0)
(0.149258019741 7.90204902449e-05 0)
(0.149258006423 8.13001591586e-05 0)
(0.149257978817 8.35796847714e-05 0)
(0.149257942576 8.58568855124e-05 0)
(0.1492579021 8.81290134659e-05 0)
(0.149257861648 9.03930399318e-05 0)
(0.149257825586 9.26457380216e-05 0)
(0.149257798459 9.48841757206e-05 0)
(0.149257786847 9.71052019036e-05 0)
(0.149257800206 9.93058050004e-05 0)
(0.149257851664 0.000101482878964 0)
(0.149257959195 0.000103632841864 0)
(0.149258148372 0.000105751420257 0)
(0.149258455506 0.000107832911295 0)
(0.149258932132 0.000109869984176 0)
(0.149259654515 0.000111852975472 0)
(0.149260732143 0.000113769023465 0)
(0.149262324216 0.000115592896252 0)
(0.149264678686 0.000117268478408 0)
(0.149268204139 0.000118714444699 0)
(0.14927336817 0.000119970821991 0)
(0.149280820275 0.000121232678142 0)
(0.149291596219 0.000122965020929 0)
(0.149307217657 0.000125340600228 0)
(0.149330072198 0.000128119921002 0)
(0.149363854273 0.000131078476056 0)
(0.149414156387 0.000134001893646 0)
(0.149489207931 0.000136777865175 0)
(0.149600944657 0.000140686506358 0)
(0.149772209307 0.00015155585919 0)
(0.150040762234 0.000172275881509 0)
(0.150469746894 0.000202516269714 0)
(0.151194955378 0.000232430747497 0)
(0.15249400615 0.000191625816966 0)
(0.155022993571 -0.000216769266171 0)
(0.162376086344 -0.00210990380807 0)
(0.187703137565 -0.0107875652776 0)
(0.204355751552 -0.0496547781115 0)
(0.96540826394 0.289214696721 0)
(0.961962898862 0.252656031358 0)
(0.823574469135 0.15902143312 0)
(0.698139482898 0.0959957228862 0)
(0.610225614858 0.0582481065819 0)
(0.548971679458 0.036214846709 0)
(0.506589112046 0.0231612797437 0)
(0.477567525167 0.015137510953 0)
(0.457745778242 0.0100177515717 0)
(0.444228774695 0.00665813810853 0)
(0.435053637522 0.00441555351597 0)
(0.428873480148 0.00290686321208 0)
(0.424754585647 0.00189105579714 0)
(0.42204705701 0.00121004265698 0)
(0.420298241327 0.000757160583526 0)
(0.419193654157 0.000459252656852 0)
(0.418516071891 0.000265850980292 0)
(0.418116948838 0.000142395360259 0)
(0.417896369476 6.61052651493e-05 0)
(0.41778734297 2.30876350856e-05 0)
(0.417745953909 1.40264620645e-06 0)
(0.417742702108 -1.01686405369e-05 0)
(0.417757325329 -1.37198254833e-05 0)
(0.417779310292 -1.32726985891e-05 0)
(0.417803631472 -1.0839514487e-05 0)
(0.417827029131 -7.49528301584e-06 0)
(0.417847809189 -3.87784589406e-06 0)
(0.417865371907 -3.57411233519e-07 0)
(0.417879720049 2.86442008213e-06 0)
(0.417891168223 5.68383453597e-06 0)
(0.417900188075 8.0363191944e-06 0)
(0.417907273665 9.83736880115e-06 0)
(0.417912627969 1.10047502846e-05 0)
(0.417916486096 1.18556624606e-05 0)
(0.417919227008 1.26774863105e-05 0)
(0.417921126767 1.34342158778e-05 0)
(0.417922428429 1.41076759919e-05 0)
(0.417923323304 1.4723367174e-05 0)
(0.417923936744 1.53093298782e-05 0)
(0.417924339644 1.58792389166e-05 0)
(0.417924584222 1.64334827765e-05 0)
(0.417924713199 1.697631043e-05 0)
(0.417924757039 1.75118103299e-05 0)
(0.417924738478 1.80431669859e-05 0)
(0.417924674222 1.85738623814e-05 0)
(0.417924577479 1.91066511475e-05 0)
(0.417924459004 1.96435223213e-05 0)
(0.417924329608 2.01866529209e-05 0)
(0.417924201298 2.07376581777e-05 0)
(0.417924087161 2.12986259268e-05 0)
(0.417924004545 2.18695310805e-05 0)
(0.417923977873 2.24503138906e-05 0)
(0.417924040629 2.30409362996e-05 0)
(0.417924239297 2.36404999831e-05 0)
(0.417924639343 2.42485623651e-05 0)
(0.417925333392 2.48645426979e-05 0)
(0.417926453987 2.54843830779e-05 0)
(0.4179281965 2.60975163034e-05 0)
(0.417930838706 2.66864608764e-05 0)
(0.417934771717 2.72204718894e-05 0)
(0.417940603121 2.76475087623e-05 0)
(0.4179494316 2.79255679435e-05 0)
(0.417962742768 2.82120797668e-05 0)
(0.41798268006 2.77470143142e-05 0)
(0.418012003439 2.51195375996e-05 0)
(0.418054320957 1.92755291081e-05 0)
(0.41811583355 9.40665937663e-06 0)
(0.418206660359 -6.02116908686e-06 0)
(0.418342401228 -2.95322344304e-05 0)
(0.418547948877 -6.48061426415e-05 0)
(0.418865195429 -0.00011603126112 0)
(0.419363724114 -0.000188173759893 0)
(0.420156984352 -0.000307951977194 0)
(0.421448608013 -0.000532915502936 0)
(0.423630179716 -0.000999863412196 0)
(0.427420273083 -0.00209043997044 0)
(0.434240804842 -0.00485605778359 0)
(0.448266256174 -0.012252900823 0)
(0.474642778125 -0.0342386026368 0)
(0.478159649972 -0.0987606213142 0)
(1.02222097559 0.238416180562 0)
(1.08213756932 0.295926645103 0)
(1.03447730247 0.239503058772 0)
(0.954615521001 0.174290157314 0)
(0.87999220371 0.121345462292 0)
(0.818614619914 0.0830993793026 0)
(0.771411070408 0.0567316635369 0)
(0.736634644389 0.0387409659763 0)
(0.711624718078 0.0264327851819 0)
(0.693916935713 0.0179731033077 0)
(0.681541753155 0.012142446847 0)
(0.67300048606 0.00812490726503 0)
(0.667181045205 0.00536632024423 0)
(0.663272098961 0.0034844440797 0)
(0.660688951337 0.00221256083183 0)
(0.659014650724 0.00136338090455 0)
(0.657954994039 0.000805242712199 0)
(0.657304725752 0.000445914991467 0)
(0.656922331672 0.000221066179351 0)
(0.656710790628 8.55784049023e-05 0)
(0.656603950408 8.35491814513e-06 0)
(0.656562425694 -3.37235575257e-05 0)
(0.656558550066 -5.68581344056e-05 0)
(0.656572050434 -6.68763961501e-05 0)
(0.656593604906 -6.84825200502e-05 0)
(0.656617449404 -6.55596079893e-05 0)
(0.65664027578 -6.05474376929e-05 0)
(0.656660476295 -5.48568656832e-05 0)
(0.656677464868 -4.92726229382e-05 0)
(0.656691218634 -4.42014170186e-05 0)
(0.656701983665 -3.98380672856e-05 0)
(0.656710144582 -3.63009804755e-05 0)
(0.656716398572 -3.36960610976e-05 0)
(0.656721438507 -3.18582479537e-05 0)
(0.65672530763 -3.08131361663e-05 0)
(0.656728021021 -3.03060020792e-05 0)
(0.656729893292 -3.02512032526e-05 0)
(0.656731203561 -3.05624864031e-05 0)
(0.656732117457 -3.10894177691e-05 0)
(0.656732724789 -3.17511157294e-05 0)
(0.656733098961 -3.25171192832e-05 0)
(0.656733304469 -3.33534467306e-05 0)
(0.656733386685 -3.42353651376e-05 0)
(0.656733379722 -3.51434348165e-05 0)
(0.656733308924 -3.60617455968e-05 0)
(0.656733193777 -3.69793022169e-05 0)
(0.656733050774 -3.78885964962e-05 0)
(0.656732896147 -3.87835433199e-05 0)
(0.656732747301 -3.96600912117e-05 0)
(0.656732622309 -4.05129186397e-05 0)
(0.656732544902 -4.1338907631e-05 0)
(0.656732550332 -4.21345934267e-05 0)
(0.656732687197 -4.28982020227e-05 0)
(0.656733024037 -4.36335657062e-05 0)
(0.656733658816 -4.43544139378e-05 0)
(0.6567347273 -4.5090673525e-05 0)
(0.656736419773 -4.59018899272e-05 0)
(0.656739016894 -4.68801650071e-05 0)
(0.656742927515 -4.81504175455e-05 0)
(0.656748749155 -4.99345068764e-05 0)
(0.656757424925 -5.27512736259e-05 0)
(0.656770604103 -5.75798280054e-05 0)
(0.656789583996 -6.52429502487e-05 0)
(0.656815813759 -7.65934318361e-05 0)
(0.656853164818 -9.33358670516e-05 0)
(0.656908348806 -0.00011785817056 0)
(0.656990735002 -0.000153364631332 0)
(0.657114117017 -0.000205144105558 0)
(0.657300312721 -0.000281716432458 0)
(0.657584716307 -0.000396955032297 0)
(0.658025454088 -0.00057520635839 0)
(0.658711709694 -0.00086373043062 0)
(0.659790519816 -0.00135258332321 0)
(0.661519388337 -0.00221485255649 0)
(0.664340401685 -0.00381301811238 0)
(0.668949175544 -0.00694574902764 0)
(0.67637134885 -0.013351416598 0)
(0.688614343374 -0.0268405156968 0)
(0.705236512045 -0.0563125203103 0)
(0.700484729952 -0.113068087009 0)
(1.02251476491 0.170807146797 0)
(1.10138979671 0.276496471258 0)
(1.11752433601 0.266664791646 0)
(1.0921467149 0.219901691978 0)
(1.05187830018 0.168168841683 0)
(1.01020840282 0.123567391939 0)
(0.973494902241 0.0888375179555 0)
(0.943864798467 0.0630063689159 0)
(0.921143070671 0.0442232022326 0)
(0.904284369948 0.030742391477 0)
(0.892075190008 0.0211562933469 0)
(0.883404854351 0.0143954681866 0)
(0.877353036189 0.00966794828582 0)
(0.873198095096 0.0063938376317 0)
(0.87039334039 0.00415116535691 0)
(0.868534474282 0.00263449117686 0)
(0.867328100601 0.00162401718941 0)
(0.866564720937 0.000962674953641 0)
(0.866096987157 0.000539120372136 0)
(0.865822768608 0.000275150810734 0)
(0.865671948454 0.00011706498065 0)
(0.865595721656 2.87893590221e-05 0)
(0.865564688485 -1.93272693972e-05 0)
(0.865561905962 -4.12626797686e-05 0)
(0.865573275587 -4.7665377957e-05 0)
(0.865590307358 -4.55232513903e-05 0)
(0.865608641537 -3.91525840987e-05 0)
(0.865626003329 -3.11410394886e-05 0)
(0.865641308111 -2.29599773641e-05 0)
(0.865654188292 -1.53770882899e-05 0)
(0.865664675155 -8.72096321743e-06 0)
(0.865672972702 -3.04399423321e-06 0)
(0.865679334632 1.73289993879e-06 0)
(0.865683969189 5.46275228157e-06 0)
(0.86568729692 8.02749042815e-06 0)
(0.865689704601 9.78356197587e-06 0)
(0.865691347242 1.11381672649e-05 0)
(0.865692523465 1.22823766955e-05 0)
(0.865693406089 1.32523477976e-05 0)
(0.865694013061 1.41393067601e-05 0)
(0.865694392406 1.4934861842e-05 0)
(0.865694607226 1.56605275295e-05 0)
(0.865694696997 1.63322411473e-05 0)
(0.865694693565 1.69675401992e-05 0)
(0.865694619823 1.75808676713e-05 0)
(0.86569449255 1.81831120075e-05 0)
(0.865694327512 1.8782032356e-05 0)
(0.865694141486 1.93833254101e-05 0)
(0.865693955277 1.99934939282e-05 0)
(0.865693791733 2.06230881375e-05 0)
(0.865693680238 2.12568126404e-05 0)
(0.865693662171 2.18813011571e-05 0)
(0.865693790841 2.24793264322e-05 0)
(0.865694136422 2.30249480626e-05 0)
(0.865694794695 2.34829496571e-05 0)
(0.865695894483 2.38229633526e-05 0)
(0.865697623309 2.39936794798e-05 0)
(0.865700278343 2.38795884763e-05 0)
(0.865704260745 2.33402604767e-05 0)
(0.865709983189 2.19559467286e-05 0)
(0.86571794067 1.91663084409e-05 0)
(0.865729744658 1.42435715236e-05 0)
(0.865747973795 5.37046531639e-06 0)
(0.865775610001 -9.02438833168e-06 0)
(0.865816517198 -3.09439877062e-05 0)
(0.865876624258 -6.43579440197e-05 0)
(0.865965274337 -0.000116139595604 0)
(0.866096982962 -0.000197048069724 0)
(0.866294299366 -0.000324339114339 0)
(0.866592039853 -0.000526479861038 0)
(0.867043800845 -0.00085240449614 0)
(0.867734630148 -0.00138902779612 0)
(0.868800844975 -0.00228507877673 0)
(0.870455638953 -0.00381507846032 0)
(0.873017787647 -0.00650315193758 0)
(0.876886000642 -0.0113584864043 0)
(0.882382488425 -0.0202497516228 0)
(0.889690026267 -0.0364468946466 0)
(0.896363092178 -0.0654805296792 0)
(0.886531282719 -0.11002142841 0)
(1.01287876123 0.118961017929 0)
(1.08820674666 0.231806930042 0)
(1.13741374451 0.253106757657 0)
(1.15409097406 0.22899274743 0)
(1.14994224914 0.188368354019 0)
(1.1353848281 0.146579840461 0)
(1.11758915362 0.110150963323 0)
(1.10059523806 0.0808162206789 0)
(1.08612483553 0.0582265757364 0)
(1.07459121478 0.0413189849836 0)
(1.06579178077 0.0289160207676 0)
(1.05928832523 0.0199601010339 0)
(1.05460012149 0.0135815616574 0)
(1.05129114454 0.00909744510873 0)
(1.04900024806 0.00598615601246 0)
(1.04744382681 0.00385696844701 0)
(1.04640697602 0.00242159955206 0)
(1.04573108381 0.00147015113842 0)
(1.04530155161 0.000851702131503 0)
(1.04503707761 0.000459015826942 0)
(1.04488073831 0.000216755757703 0)
(1.04479314583 7.3016800595e-05 0)
(1.04474930523 -5.50410998786e-06 0)
(1.04473243113 -4.40072105929e-05 0)
(1.04473020611 -5.93829004091e-05 0)
(1.04473571523 -6.17151336144e-05 0)
(1.04474468697 -5.72403805126e-05 0)
(1.04475459266 -4.97981053036e-05 0)
(1.04476405192 -4.16394315421e-05 0)
(1.04477239414 -3.39854718749e-05 0)
(1.04477936885 -2.74223863582e-05 0)
(1.04478496406 -2.21529617192e-05 0)
(1.04478932693 -1.81320487617e-05 0)
(1.04479266922 -1.51456121437e-05 0)
(1.04479524783 -1.28150378699e-05 0)
(1.04479735773 -1.1020104814e-05 0)
(1.04479910809 -9.52969889746e-06 0)
(1.04480044635 -8.23870013504e-06 0)
(1.04480144194 -7.22034810999e-06 0)
(1.04480214326 -6.55156636352e-06 0)
(1.04480257212 -6.17223919131e-06 0)
(1.04480281442 -5.96492944108e-06 0)
(1.04480291775 -5.87896754025e-06 0)
(1.04480292006 -5.86294265622e-06 0)
(1.04480284636 -5.87705340452e-06 0)
(1.04480271592 -5.9012752288e-06 0)
(1.04480254586 -5.92515379407e-06 0)
(1.0448023565 -5.94453006777e-06 0)
(1.04480217503 -5.96279370102e-06 0)
(1.04480200821 -5.99455566872e-06 0)
(1.04480186959 -6.02318915279e-06 0)
(1.04480180423 -6.0466398469e-06 0)
(1.04480186688 -6.07181849271e-06 0)
(1.04480213451 -6.11407344027e-06 0)
(1.0448027344 -6.21486328791e-06 0)
(1.04480383635 -6.49548643031e-06 0)
(1.04480562887 -7.21320084641e-06 0)
(1.04480842054 -8.64234146935e-06 0)
(1.04481251479 -1.12767454465e-05 0)
(1.04481838467 -1.51176537453e-05 0)
(1.04482704147 -2.00501839242e-05 0)
(1.04483963884 -2.63024666773e-05 0)
(1.04485748554 -3.61379559031e-05 0)
(1.04488287913 -5.25421613753e-05 0)
(1.0449192894 -7.97279973932e-05 0)
(1.04497187399 -0.000123939593017 0)
(1.0450482387 -0.000194944867706 0)
(1.04515973353 -0.000308321832742 0)
(1.04532350667 -0.000489232029766 0)
(1.04556542128 -0.000778689398406 0)
(1.04592415223 -0.00124399604356 0)
(1.04645754287 -0.00199676577497 0)
(1.04724968631 -0.00322748814214 0)
(1.0484134875 -0.00526685452753 0)
(1.05007619012 -0.00869155142853 0)
(1.0522943608 -0.0144950443632 0)
(1.05482390103 -0.024283893652 0)
(1.05687515895 -0.0403672728189 0)
(1.05574249865 -0.0655834051745 0)
(1.04212927208 -0.0994340000971 0)
(1.00447484482 0.0814039918351 0)
(1.06917241199 0.181288532283 0)
(1.13080576027 0.216950412058 0)
(1.173750111 0.21078914973 0)
(1.19865279307 0.183690072332 0)
(1.21020005503 0.149751680089 0)
(1.21350276522 0.11677914204 0)
(1.21251747895 0.0882206768349 0)
(1.20973124984 0.0650481507335 0)
(1.20651148898 0.0470209094329 0)
(1.20351944956 0.0334068096749 0)
(1.20101179053 0.0233557341885 0)
(1.19903481116 0.0160720159463 0)
(1.19753916031 0.0108795161938 0)
(1.1964417165 0.00723419068008 0)
(1.19565600909 0.00471352117838 0)
(1.19510533523 0.00299763165115 0)
(1.19472694466 0.00184916304043 0)
(1.19447198641 0.00109496203459 0)
(1.19430369903 0.000610612480124 0)
(1.19419508287 0.000307987454846 0)
(1.19412682183 0.000125769711281 0)
(1.19408579619 2.22251799209e-05 0)
(1.19406256179 -3.24486279085e-05 0)
(1.19405028576 -5.72657810142e-05 0)
(1.19404481054 -6.45904485049e-05 0)
(1.19404333446 -6.23676792845e-05 0)
(1.19404403821 -5.55130154047e-05 0)
(1.19404580581 -4.69369083617e-05 0)
(1.1940479787 -3.8252897507e-05 0)
(1.19405018464 -3.02617170651e-05 0)
(1.19405223224 -2.32679332912e-05 0)
(1.19405405307 -1.72945855831e-05 0)
(1.19405564306 -1.22677923161e-05 0)
(1.19405701933 -8.08051737295e-06 0)
(1.1940582026 -4.67962501286e-06 0)
(1.19405916497 -2.0692300754e-06 0)
(1.19405985115 -1.7830436844e-07 0)
(1.19406022221 1.13810600783e-06 0)
(1.19406035414 1.99329439574e-06 0)
(1.1940604249 2.67018075212e-06 0)
(1.19406047011 3.27197472844e-06 0)
(1.19406046673 3.79729804996e-06 0)
(1.19406043161 4.25358263627e-06 0)
(1.19406035918 4.65624048327e-06 0)
(1.19406024202 5.02173868285e-06 0)
(1.19406008388 5.36174321328e-06 0)
(1.19405989195 5.67944764192e-06 0)
(1.19405967405 5.9670554512e-06 0)
(1.19405947154 6.20616600516e-06 0)
(1.19405933216 6.419690574e-06 0)
(1.19405928504 6.60092032051e-06 0)
(1.1940593783 6.72316369026e-06 0)
(1.19405966758 6.74505985676e-06 0)
(1.19406018335 6.60533026342e-06 0)
(1.19406090766 6.20485054279e-06 0)
(1.19406194105 5.41446981184e-06 0)
(1.19406344002 3.8146066505e-06 0)
(1.19406609901 1.02724460121e-06 0)
(1.1940709382 -3.2549360149e-06 0)
(1.19407844832 -9.81361295098e-06 0)
(1.19408858071 -2.00182672416e-05 0)
(1.19410212839 -3.58950718934e-05 0)
(1.19412108289 -6.03661685531e-05 0)
(1.1941475703 -9.80128807321e-05 0)
(1.19418441835 -0.000156154248088 0)
(1.19423562334 -0.000246437568536 0)
(1.19430682352 -0.000387342613181 0)
(1.19440591035 -0.000608325841372 0)
(1.19454366902 -0.000956714632178 0)
(1.19473414988 -0.00150900905102 0)
(1.1949941311 -0.00238946990635 0)
(1.1953384335 -0.00380128548221 0)
(1.19576431769 -0.00607731495579 0)
(1.1962114533 -0.00975627686504 0)
(1.1964601174 -0.0156817741938 0)
(1.19592352698 -0.0250643632881 0)
(1.19344725836 -0.0393591733426 0)
(1.1866964915 -0.0598084635888 0)
(1.17015343411 -0.0851012931849 0)
(0.998962335839 0.0544316192123 0)
(1.0531096075 0.133401600996 0)
(1.11628275636 0.170777551677 0)
(1.1730128277 0.175143866445 0)
(1.21791260487 0.159583602127 0)
(1.25049875506 0.134951017356 0)
(1.27288512 0.108411655514 0)
(1.28776746027 0.0838849718353 0)
(1.29745294701 0.0630565735788 0)
(1.30366104319 0.0462999236587 0)
(1.30759265987 0.033320517949 0)
(1.31005403986 0.0235495278023 0)
(1.31157398522 0.0163599120338 0)
(1.31249530913 0.0111713197216 0)
(1.31303902366 0.00749151141289 0)
(1.31334713756 0.00492449043476 0)
(1.31351057447 0.00316295927134 0)
(1.31358722797 0.00197475514623 0)
(1.31361362842 0.0011881993386 0)
(1.31361250355 0.000678631041769 0)
(1.31359769115 0.000357009926501 0)
(1.31357739597 0.000160755938645 0)
(1.31355642828 4.64719469774e-05 0)
(1.31353715997 -1.58655700952e-05 0)
(1.31352052891 -4.60527288825e-05 0)
(1.31350686633 -5.70617144849e-05 0)
(1.31349598665 -5.73159700501e-05 0)
(1.31348755157 -5.20777450525e-05 0)
(1.31348117271 -4.45164624842e-05 0)
(1.31347646463 -3.64567958106e-05 0)
(1.31347307655 -2.8871258095e-05 0)
(1.31347070614 -2.22132645287e-05 0)
(1.31346909477 -1.66334197791e-05 0)
(1.31346801524 -1.21389734925e-05 0)
(1.31346730326 -8.66422583009e-06 0)
(1.31346686227 -6.10691776861e-06 0)
(1.31346659152 -4.33156770473e-06 0)
(1.31346640004 -3.12954939964e-06 0)
(1.31346628491 -2.27147510835e-06 0)
(1.31346633208 -1.55411327572e-06 0)
(1.3134665028 -9.81437031544e-07 0)
(1.31346661783 -5.70592310004e-07 0)
(1.31346662561 -2.1211941059e-07 0)
(1.31346656138 1.2030173834e-07 0)
(1.31346644844 4.27153376466e-07 0)
(1.31346629745 7.17080981378e-07 0)
(1.31346611194 1.00092899474e-06 0)
(1.31346589494 1.28837659008e-06 0)
(1.31346565577 1.5892137007e-06 0)
(1.31346542744 1.90786143371e-06 0)
(1.31346523328 2.19322763469e-06 0)
(1.31346508092 2.40571998162e-06 0)
(1.31346500042 2.50053604729e-06 0)
(1.31346504583 2.41301448023e-06 0)
(1.3134653057 2.05811949357e-06 0)
(1.31346590552 1.35371546255e-06 0)
(1.31346679184 2.46105097779e-07 0)
(1.31346808896 -1.43476276764e-06 0)
(1.31347022803 -3.96447008543e-06 0)
(1.31347339577 -8.06085141335e-06 0)
(1.3134778139 -1.50006384499e-05 0)
(1.31348371473 -2.63471190083e-05 0)
(1.31349138481 -4.36974722865e-05 0)
(1.31350131334 -7.02336408935e-05 0)
(1.31351382104 -0.000110985689203 0)
(1.31352899734 -0.00017370178634 0)
(1.31354646859 -0.000270465809205 0)
(1.31356493327 -0.000420234173714 0)
(1.31358121545 -0.00065282026752 0)
(1.31358842792 -0.00101543558772 0)
(1.31357253487 -0.00158306336103 0)
(1.31350612949 -0.00247471980029 0)
(1.31333503603 -0.00387759611947 0)
(1.3129517564 -0.00608394655112 0)
(1.31214640312 -0.00953807904526 0)
(1.3105138049 -0.0148812426129 0)
(1.30730092306 -0.0229412569493 0)
(1.30129866879 -0.0345578561416 0)
(1.29064018736 -0.050167605466 0)
(1.27185501694 -0.0685430269693 0)
(0.995736084457 0.034633853253 0)
(1.04179518417 0.0905689142393 0)
(1.1022284646 0.121549558287 0)
(1.16491422973 0.129605828535 0)
(1.22202581224 0.122009264493 0)
(1.26951910408 0.106019936123 0)
(1.30680245505 0.0870975554963 0)
(1.33499560231 0.0686366822013 0)
(1.35574505274 0.0523698416194 0)
(1.37069647283 0.038925621767 0)
(1.38128308528 0.0282980781389 0)
(1.38866302998 0.0201712825855 0)
(1.39373070807 0.0141175162647 0)
(1.39715700344 0.00970534206479 0)
(1.3994347664 0.00655060139309 0)
(1.40092011025 0.00433446059346 0)
(1.40186667924 0.00280415040254 0)
(1.40245272318 0.00176574796599 0)
(1.40280184492 0.00107419940387 0)
(1.40299856652 0.000623238964739 0)
(1.40309981321 0.000336413232225 0)
(1.40314329274 0.000159627720248 0)
(1.40315357999 5.51697341317e-05 0)
(1.40314611835 -2.9913519228e-06 0)
(1.40313038611 -3.21151619287e-05 0)
(1.40311201014 -4.38819611341e-05 0)
(1.40309399684 -4.57521858711e-05 0)
(1.40307787018 -4.24109814545e-05 0)
(1.40306423126 -3.67218252265e-05 0)
(1.40305315374 -3.03615440226e-05 0)
(1.40304443629 -2.4244373507e-05 0)
(1.40303775408 -1.88170348128e-05 0)
(1.40303274706 -1.42476959022e-05 0)
(1.40302906616 -1.05379780799e-05 0)
(1.40302641474 -7.5873620831e-06 0)
(1.40302456106 -5.27097935723e-06 0)
(1.40302332831 -3.46631249787e-06 0)
(1.40302256506 -2.03041551126e-06 0)
(1.40302210545 -8.58885151662e-07 0)
(1.40302175245 7.2626710461e-08 0)
(1.40302143981 7.79846980133e-07 0)
(1.4030212514 1.26592063112e-06 0)
(1.4030211709 1.63527622279e-06 0)
(1.40302110768 1.95405727249e-06 0)
(1.4030210295 2.25787451862e-06 0)
(1.40302092858 2.56446065935e-06 0)
(1.40302080348 2.88309169257e-06 0)
(1.4030206568 3.21814246538e-06 0)
(1.40302048984 3.56979103003e-06 0)
(1.40302029472 3.92872522591e-06 0)
(1.40302008215 4.25322680851e-06 0)
(1.40301988554 4.5101070874e-06 0)
(1.40301973288 4.66038817192e-06 0)
(1.4030196482 4.64539839761e-06 0)
(1.4030196496 4.37811671603e-06 0)
(1.40301974374 3.71882765078e-06 0)
(1.40301995578 2.45080491091e-06 0)
(1.40302025452 4.68279710165e-07 0)
(1.40302088776 -2.6684873724e-06 0)
(1.40302206348 -7.70597938437e-06 0)
(1.40302360045 -1.54524987345e-05 0)
(1.4030251769 -2.72302311055e-05 0)
(1.40302633042 -4.48950795242e-05 0)
(1.40302632079 -7.14349587044e-05 0)
(1.40302366107 -0.00011144176655 0)
(1.40301561757 -0.0001719472641 0)
(1.40299739045 -0.000263825922873 0)
(1.40296080302 -0.000403952614998 0)
(1.4028919318 -0.000618387725905 0)
(1.40276708242 -0.000947736660575 0)
(1.40254624169 -0.00145531281887 0)
(1.40216308937 -0.0022395289025 0)
(1.40150613651 -0.00344940741084 0)
(1.40038712354 -0.00530861201571 0)
(1.39849288203 -0.00813985640476 0)
(1.39531044236 -0.0123777940193 0)
(1.39002701143 -0.0185331637497 0)
(1.38149489622 -0.0270433919243 0)
(1.36821876509 -0.0379898649345 0)
(1.34780768672 -0.0504799322421 0)
(0.994011541739 0.0192357991127 0)
(1.03484767668 0.0523338329163 0)
(1.09199270503 0.0723631202604 0)
(1.1566243137 0.0791292260955 0)
(1.22032131287 0.0761045423552 0)
(1.2770196372 0.0673339693635 0)
(1.32424440728 0.0561509033785 0)
(1.36181598596 0.0447990127514 0)
(1.39068558732 0.0345303810148 0)
(1.41226105619 0.0258814373005 0)
(1.42801855188 0.0189465299781 0)
(1.43929919311 0.0135849889416 0)
(1.44722844741 0.00955654170138 0)
(1.45270452391 0.00660012309492 0)
(1.45641937013 0.00447419799412 0)
(1.45889187792 0.00297352111292 0)
(1.46050276581 0.00193277600006 0)
(1.4615261868 0.00122370070977 0)
(1.46215622767 0.000749557132778 0)
(1.46252807828 0.000439024243551 0)
(1.46273438183 0.00024052795117 0)
(1.46283755157 0.0001174194257 0)
(1.46287888149 4.4057648614e-05 0)
(1.46288514749 2.70023843994e-06 0)
(1.46287304958 -1.84346395489e-05 0)
(1.46285272385 -2.74283909227e-05 0)
(1.46283019591 -2.94288556334e-05 0)
(1.46280867843 -2.76800652992e-05 0)
(1.46278969877 -2.41800307942e-05 0)
(1.46277380144 -2.01098794975e-05 0)
(1.46276097823 -1.6117936703e-05 0)
(1.4627509352 -1.25264060416e-05 0)
(1.462743263 -9.4617294051e-06 0)
(1.46273753044 -6.93468041474e-06 0)
(1.46273333943 -4.8911624294e-06 0)
(1.46273034827 -3.26267195135e-06 0)
(1.46272826842 -1.98569734305e-06 0)
(1.46272684116 -1.01978931486e-06 0)
(1.46272585597 -3.19854122098e-07 0)
(1.46272524721 1.99821263908e-07 0)
(1.46272489967 6.80642241729e-07 0)
(1.46272466637 1.1545626613e-06 0)
(1.46272451462 1.57635441329e-06 0)
(1.462724405 1.95475017621e-06 0)
(1.46272430911 2.30997692851e-06 0)
(1.46272420765 2.65512715225e-06 0)
(1.4627240871 2.99576589903e-06 0)
(1.4627239389 3.32927065019e-06 0)
(1.46272375849 3.64534455209e-06 0)
(1.46272354281 3.93071850927e-06 0)
(1.46272329423 4.17696124028e-06 0)
(1.46272301998 4.35230177168e-06 0)
(1.46272272736 4.40436751021e-06 0)
(1.46272242909 4.26420270536e-06 0)
(1.46272214422 3.84355725538e-06 0)
(1.46272189098 3.03185850735e-06 0)
(1.46272162801 1.70341990025e-06 0)
(1.46272127391 -2.76299546217e-07 0)
(1.46272071339 -3.11619380616e-06 0)
(1.46271979936 -7.71308201905e-06 0)
(1.46271825387 -1.48491519304e-05 0)
(1.46271540505 -2.56142247487e-05 0)
(1.46271013988 -4.15586239276e-05 0)
(1.46270065229 -6.50670434329e-05 0)
(1.46268388193 -9.97431977679e-05 0)
(1.46265469431 -0.000150982264444 0)
(1.46260458399 -0.000226967033008 0)
(1.46251979589 -0.000340173793049 0)
(1.46237787882 -0.000509218212471 0)
(1.46214201291 -0.000762516678143 0)
(1.46175224775 -0.00114380324258 0)
(1.46111400333 -0.00172074632315 0)
(1.46007622762 -0.00258909274194 0)
(1.4583980219 -0.0038883472815 0)
(1.45570556502 -0.00581085404456 0)
(1.45143362855 -0.00859966898457 0)
(1.44476210347 -0.0125148394435 0)
(1.43462233512 -0.0177366513337 0)
(1.41975549593 -0.0242131496066 0)
(1.3983166863 -0.0313980889247 0)
(0.993269677811 0.00617014284356 0)
(1.03158104121 0.0171020382724 0)
(1.0867218972 0.0239906412496 0)
(1.15174565979 0.0265606599132 0)
(1.21823551367 0.0258180550274 0)
(1.2792579269 0.0230488848269 0)
(1.33140157859 0.0193656322938 0)
(1.37377623769 0.015546860779 0)
(1.40691081353 0.0120449347329 0)
(1.4320334405 0.00906640566081 0)
(1.45060247921 0.00666060186808 0)
(1.46403021 0.00479009962255 0)
(1.47355053342 0.00337843731801 0)
(1.48017602737 0.0023387477978 0)
(1.48470270267 0.00158892402662 0)
(1.4877366418 0.00105829912682 0)
(1.48972780331 0.000689472882092 0)
(1.49100325838 0.000437648382695 0)
(1.49179636461 0.000268895619249 0)
(1.49227076237 0.000158121022301 0)
(1.49253928224 8.71348621338e-05 0)
(1.49267838706 4.29857071449e-05 0)
(1.49273894919 1.65963841005e-05 0)
(1.49275415151 1.6762479274e-06 0)
(1.4927449421 -6.05622107162e-06 0)
(1.49272417993 -9.40154482436e-06 0)
(1.4926995593 -1.02085517712e-05 0)
(1.49267530799 -9.64679234782e-06 0)
(1.49265352293 -8.43496808135e-06 0)
(1.49263504577 -6.99085514611e-06 0)
(1.49262000009 -5.55451429086e-06 0)
(1.49260812415 -4.2454283461e-06 0)
(1.4925989894 -3.11076036677e-06 0)
(1.49259212143 -2.15685270426e-06 0)
(1.49258706659 -1.3673143566e-06 0)
(1.49258342502 -7.20807471888e-07 0)
(1.49258086103 -1.95991790609e-07 0)
(1.4925791036 2.28087327082e-07 0)
(1.4925779452 5.99787835996e-07 0)
(1.49257720909 9.67384259292e-07 0)
(1.49257674199 1.27080019866e-06 0)
(1.49257645144 1.55386240665e-06 0)
(1.49257628056 1.83334807788e-06 0)
(1.49257617707 2.12019876473e-06 0)
(1.49257610228 2.42139949111e-06 0)
(1.49257602975 2.73983826692e-06 0)
(1.49257594066 3.07466155084e-06 0)
(1.49257582139 3.42111375045e-06 0)
(1.49257566196 3.77004995304e-06 0)
(1.49257545327 4.10698613043e-06 0)
(1.49257518854 4.41125765103e-06 0)
(1.49257486324 4.65070411921e-06 0)
(1.49257447196 4.77858821436e-06 0)
(1.49257400569 4.7354939311e-06 0)
(1.49257344198 4.43530420365e-06 0)
(1.49257274947 3.75407947388e-06 0)
(1.49257191746 2.54549827055e-06 0)
(1.49257081046 7.307007079e-07 0)
(1.49256901496 -1.93858321138e-06 0)
(1.49256623527 -6.09512253943e-06 0)
(1.49256207446 -1.22675912866e-05 0)
(1.49255550861 -2.12314982778e-05 0)
(1.49254492739 -3.40765706283e-05 0)
(1.49252779109 -5.23598160859e-05 0)
(1.49249998713 -7.82837478284e-05 0)
(1.49245482024 -0.000114883185 0)
(1.4923814166 -0.000166532083553 0)
(1.49226270685 -0.000239735389956 0)
(1.49207133906 -0.000343002764873 0)
(1.49176273083 -0.000488871651538 0)
(1.49126459392 -0.000697497060267 0)
(1.49046818652 -0.00100264534829 0)
(1.48920417245 -0.00143679853399 0)
(1.4872067652 -0.00204744353768 0)
(1.48407759664 -0.00289592890646 0)
(1.47923697654 -0.00404973799838 0)
(1.47187827203 -0.00556313675718 0)
(1.46098826921 -0.0074376144365 0)
(1.44542020051 -0.00957912068556 0)
(1.42356525384 -0.0117391532222 0)
(0.99327047571 -0.0061684094755 0)
(1.03158102428 -0.0171003838526 0)
(1.08672183188 -0.0239897692166 0)
(1.15174569862 -0.0265602529067 0)
(1.21823559304 -0.0258179970327 0)
(1.27925803046 -0.0230491113946 0)
(1.33140170586 -0.0193660460154 0)