/*--------------------------------*- C++ -*----------------------------------*\
| =========                 |                                                 |
| \\      /  F ield         | OpenFOAM: The Open Source CFD Toolbox           |
|  \\    /   O peration     | Version:  2106                                  |
|   \\  /    A nd           | Website:  www.openfoam.com                      |
|    \\/     M anipulation  |                                                 |
\*---------------------------------------------------------------------------*/
FoamFile
{
    version     2.0;
    format      ascii;
    arch        "LSB;label=32;scalar=64";
    class       volScalarField;
    location    "0.33";
    object      p;
}
// * * * * * * * * * * * * * * * * * * * * * * * * * * * * * * * * * * * * * //

dimensions      [0 2 -2 0 0 0 0];

internalField   nonuniform List<scalar> 
11200
(
150.086490435
147.157889041
146.044038901
145.516708841
145.149380942
144.854605177
144.592964926
144.344431058
144.099918378
143.854857262
143.606550577
143.353243634
143.093704408
142.826997278
142.552355342
142.269105143
141.976620815
141.674296299
141.361532718
141.037741819
140.702299814
140.354557649
139.993857046
139.619530186
139.230891584
138.827240033
138.40785942
137.97201938
137.518975997
137.047972448
136.558239583
136.048996373
135.519450241
134.968797125
134.396222132
133.800901038
133.18199966
132.538674492
131.870072834
131.175333406
130.453586544
129.703954439
128.925551348
128.117483653
127.278849748
126.408739847
125.506235509
124.570408909
123.600321771
122.595023754
121.553550368
120.474920147
119.358130906
118.202154965
117.005932951
115.768365948
114.488305556
113.164541433
111.795785411
110.380651766
108.917632138
107.40506345
105.84108821
104.223605658
102.550205416
100.818082038
99.0239248381
97.1637734778
95.232823454
93.2251599415
91.1333938076
88.9481655484
86.6572767796
84.2445414245
81.6878739025
78.9556144288
76.0001635012
72.7489451142
69.0482317756
64.2850017449
148.293448263
146.935274483
146.144303694
145.644290523
145.253304079
144.929424116
144.644906443
144.380308641
144.124826273
143.872310973
143.618935442
143.36218608
143.100325819
142.832078154
142.556442613
142.272584333
141.97976585
141.67730426
141.364541052
141.040814308
140.705473766
140.35784388
139.997281042
139.623117135
139.234656257
138.831191483
138.412003865
137.976361197
137.523518261
137.052717244
136.563188033
136.054147995
135.524802695
134.97435176
134.40198215
133.806869732
133.188180103
132.545069627
131.876685666
131.182166987
130.460644109
129.71123942
128.933067498
128.125235161
127.286841382
126.416977104
125.514724831
124.57915795
123.609339699
122.604321652
121.563141721
120.484821398
119.368362177
118.212740973
117.016904082
115.779759592
114.5001679
113.17692957
111.808769909
110.394320067
108.932093162
107.42045394
105.857578384
104.241403272
102.569560765
100.839309773
99.0474347683
97.1900979593
95.2626596668
93.2594350393
91.1733552168
88.9954640428
86.7142142331
84.3144701359
81.7758368973
79.0698065034
76.1555813151
72.9753282465
69.4262586729
65.3135203279
147.298257446
146.644057324
146.091702277
145.654085697
145.282463731
144.960364634
144.671268321
144.401038982
144.140581667
143.884107555
143.627731673
143.368772301
143.10531737
142.835939867
142.559518678
142.275125129
141.981949518
141.679253178
141.366337741
141.042526297
140.707156721
140.359589468
139.999080471
139.624976188
139.236584606
138.83319624
138.414089826
137.978532059
137.525777415
137.055068301
136.565635424
136.056698564
135.527466544
134.977131957
134.40487649
133.809878516
133.191304806
132.548312178
131.880048836
131.185654431
130.464260316
129.714989846
128.936958672
128.129274902
127.291039089
126.421344105
125.519274798
124.583907413
123.61430866
122.609534385
121.568627805
120.490616832
119.374510893
118.219296568
117.02393197
115.787339667
114.508397652
113.185928368
111.81868421
110.405329346
108.944416904
107.434360397
105.873395394
104.259552772
102.590595176
100.863928628
99.0765110494
97.2247435983
95.30431196
93.3099775255
91.2352907924
89.0721892428
86.8105783102
84.4375425252
81.9363614361
79.2851755551
76.4560123255
73.4172578907
70.1329362075
66.5800277366
146.748495453
146.385114376
145.985217013
145.616227673
145.278612613
144.970512467
144.685152218
144.41445227
144.152085316
143.893424433
143.635051602
143.374435262
143.109675553
142.839305162
142.562147966
142.277221384
141.983669027
141.680714639
141.367631027
141.04371823
140.708285276
140.360642029
140.000147289
139.626077952
139.237723412
138.834376036
138.415314297
137.979803646
137.527097429
137.056437032
136.567051992
136.058160295
135.528969045
134.978676318
134.406472195
133.811530574
133.193019441
132.550096363
131.881908555
131.187596161
130.466291341
129.717118474
128.939194647
128.131629825
127.293526882
126.423981601
125.522082432
124.586909999
123.617536389
122.613023851
121.57242344
120.494772674
119.379092662
118.224384301
117.029623384
115.793754382
114.515682191
113.194262549
111.828288858
110.416475559
108.957441279
107.44968879
105.891556445
104.281185161
102.616473071
100.895021332
99.1140543701
97.2703199243
95.3599647545
93.3783789635
91.320005679
89.17811574
86.9444778743
84.609050544
82.1597453357
79.5824647645
76.8624643202
73.9900378768
70.9687846139
67.8358844249
146.414446529
146.182651281
145.881239543
145.570263567
145.265425648
144.973404495
144.694431962
144.425309881
144.162354716
143.90227638
143.642314478
143.380231572
143.114235113
142.84287598
142.564957427
142.279462423
141.985498266
141.682255694
141.36897935
141.044946601
140.709452547
140.361800897
140.001295329
139.627225322
139.238893793
138.83558447
138.416570586
137.981115178
137.528470229
137.057876581
136.568563841
136.059750651
135.530644677
134.980442361
134.408329881
133.813483186
133.195067579
132.552241052
131.884154059
131.189947214
130.468755149
129.719704566
128.941915018
128.134499254
127.29656341
126.427207123
125.525523485
124.590598736
123.621511802
122.617332983
121.577123907
120.499934775
119.384802082
118.23074548
117.036763503
115.801828014
114.524875945
113.204804194
111.840455654
110.430610734
108.97396718
107.469112436
105.914509686
104.308464283
102.649082335
100.934221624
99.161434402
97.3278985526
95.4303344737
93.4649079736
91.4271224134
89.3117134297
87.1125728729
84.8227823528
82.4349214819
79.9419815688
77.3397666549
74.6327188829
71.8421980951
69.0189004379
146.21105294
146.035151105
145.79395708
145.52663253
145.249447349
144.972811513
144.701125066
144.434627568
144.171867548
143.910864984
143.649584987
143.386160489
143.118965989
142.846610606
142.567901389
142.281800579
141.987386074
141.683818439
141.370314913
141.046129688
140.710539369
140.36283211
140.002298548
139.628229005
139.239912956
138.836629698
138.417649788
137.982234207
137.529633427
137.059087019
136.569823629
136.061061039
135.532006409
134.981856313
134.409797437
133.815006881
133.196653014
132.553895574
131.885885878
131.191768216
130.47067809
129.721742966
128.944084456
128.136817943
127.299052971
126.429893724
125.528438906
124.59378163
123.625009141
122.621202652
121.581435348
120.504772151
119.39026762
118.236963368
117.043885016
115.810038517
114.534405198
113.215933018
111.853531948
110.446053026
108.99227982
107.490919762
105.940589395
104.33977254
102.686801987
100.979827736
99.2167786907
97.3953210896
95.5128149675
93.5662745254
91.5523437494
89.4673111962
87.3072107617
85.0681014495
82.7466985589
80.3416507142
77.8560258032
75.3019777797
72.706453895
70.1165509778
146.087934993
145.932327599
145.726026644
145.48946602
145.233993059
144.970716664
144.706107504
144.442603998
144.180476993
143.91889871
143.656535133
143.391909743
143.123592719
142.85027546
142.570785735
142.284075909
141.989201009
141.685295178
141.371550398
141.047198757
140.711498446
140.363723082
140.003153865
139.629073299
139.240762544
138.837495921
138.418541112
137.983156871
137.53059217
137.060085706
136.570865754
136.062150066
135.533146047
134.983051068
134.411052954
133.816329767
133.198050316
132.555375129
131.88745642
131.193437726
130.472454491
129.723637996
128.946114302
128.139002971
127.301418422
126.432470136
125.531263201
124.59689852
123.628472867
122.62507876
121.585803547
120.509729547
119.395932459
118.243479729
117.051428138
115.818820395
114.54468189
113.228016019
111.867799168
110.462970777
109.012429877
107.515016275
105.969500879
104.374570983
102.728814688
101.030702758
99.2785706596
97.4706045649
95.6048347239
93.6791467136
91.6913263956
89.6391678554
87.5206918924
85.3345660306
83.0808590916
80.7623288015
78.3865241307
75.9690432496
73.5367608544
71.1290327243
146.013854152
145.863844299
145.677089692
145.460986089
145.221282652
144.968464981
144.709832506
144.44910009
144.187740377
143.92582702
143.662619161
143.396993349
143.127709014
142.85354485
142.57335727
142.286096375
141.99080064
141.686582726
141.372613101
141.048104612
140.712299312
140.364457898
140.003851458
139.629754481
139.2414432
138.838186976
138.419250697
137.983891042
137.531355623
137.060882338
136.571699048
136.063023496
135.53406324
134.984015905
134.412069474
133.81740251
133.19918469
132.556576989
131.888732568
131.19479789
130.473914674
129.72521622
128.947829323
128.140877103
127.30347867
126.434749413
125.533801524
124.599744505
123.631685498
122.628729669
121.589980464
120.514538891
119.401503356
118.249969045
117.059026719
115.827761535
114.55525084
113.24056094
111.882744079
110.480832204
109.033834057
107.540729916
106.000465322
104.411943387
102.774019646
101.08549861
99.345134698
97.5516419785
95.7037189851
93.8001007732
91.8396550815
89.821552136
87.7455462691
85.6124498485
83.4248762289
81.1883588379
78.9129340036
76.6152062455
74.3198547145
72.0588864085
145.971576669
145.822129297
145.645714907
145.44197879
145.212449172
144.966744875
144.712390084
144.453758073
144.193058893
143.930973565
143.667186184
143.400838848
143.130839964
142.856040802
142.575324542
142.287642941
141.992023947
141.687565039
141.373420904
141.048790017
140.712902257
140.365008439
140.004371933
139.630262154
139.241947992
138.838698648
138.419775928
137.984434766
137.531921765
137.061474315
136.572319948
136.063676434
135.534751579
134.984743382
134.41284039
133.818221991
133.200058979
132.557514111
131.889742973
131.195894072
130.475107918
129.726521489
128.949266578
128.142470717
127.305258088
126.436750293
125.536067134
124.602327356
123.63464933
122.632151842
121.593954584
120.519178628
119.40694696
118.256384492
117.066618178
115.836776577
114.565990265
113.253388858
111.898105104
110.499270209
109.056012724
107.567458877
106.032732704
104.450957511
102.821260175
101.142780287
99.41468722
97.6362096806
95.8066846711
93.9256393537
91.9929189225
90.0088903036
87.974748646
85.8929853742
83.7680467719
81.6072280363
79.4217792702
77.2281118652
75.0482696423
72.9084308482
145.952299209
145.802421689
145.630460032
145.43252682
145.207968739
144.965853964
144.713724261
144.456221971
144.195902716
143.933750652
143.6696705
143.402946473
143.132568899
142.857430201
142.576429635
142.288520961
141.99272713
141.688137797
141.373899329
141.049202524
140.713270706
140.36534936
140.004697615
139.630581574
139.242268723
138.839025544
138.420112889
137.984784964
137.532287922
137.06185905
136.572725863
136.064106327
135.535208643
134.985231362
134.413363752
133.818786187
133.200670642
132.558181195
131.890474538
131.196700724
130.476004514
129.727525329
128.950398278
128.143755235
127.3067257
126.438437757
125.538019119
124.604598062
123.637304539
122.635271432
121.597635582
120.523538878
119.412129393
118.26256265
117.074002796
115.845623979
114.576611789
113.266164191
111.91349352
110.517831209
109.078425291
107.594549198
106.065506502
104.49063935
102.869341894
101.201079946
99.4854207077
97.7220775967
95.9109759043
94.0523532166
92.1469016368
90.1959904983
88.201959881
86.1685632922
84.1015082293
82.0091394532
79.9031802739
77.7993846539
75.7174424734
73.6792775091
145.952300909
145.802436888
145.630486226
145.432562313
145.208012772
144.965905735
144.713782846
144.456286547
144.195972584
143.933825236
143.669749328
143.403029168
143.13265516
142.857519798
142.576522409
142.288616835
141.992826089
141.688239909
141.374004734
141.049311434
140.713383408
140.365466216
140.004819073
139.630708181
139.242401188
138.839164594
138.42025941
137.984940063
137.53245293
137.062035397
136.572915569
136.064311807
135.535432817
134.985477803
134.413636804
133.819091107
133.201013787
132.558570303
131.890919187
131.197212831
130.476598131
129.728217498
128.951209797
128.144711399
127.307857225
126.439781925
125.539621179
124.606512958
123.639599007
122.638026375
121.60094922
120.527530439
119.416943548
118.268374884
117.081026013
115.854116279
114.586886116
113.278600653
111.928552575
110.536073803
109.100529905
107.621339023
106.097980171
104.530007512
102.917071139
101.258943803
99.5555581717
97.8070638878
96.0139067311
94.1769368941
92.2975842504
90.378148922
88.4217431758
86.4329900163
84.4184050263
82.3868895218
80.3502293163
78.3234415144
76.3244285009
74.3722831045
145.971581849
145.822175287
145.645794115
145.442086039
145.212582172
144.96690097
144.712566484
144.453952335
144.193268945
143.931197677
143.667422949
143.401087141
143.131098897
142.856309693
142.575602924
142.287930572
141.992320809
141.687871331
141.373737044
141.049116638
140.713240218
140.365358808
140.004736021
139.630641648
139.242344892
138.839115126
138.420214595
137.984898829
137.532415091
137.062001563
136.572886976
136.06429033
135.535421004
134.985478952
134.41365505
133.819131569
133.201082745
132.558675464
131.891069923
131.197420516
130.476876629
129.728583683
128.95168422
128.145319006
127.308628319
126.440753303
125.540837475
124.6080284
123.641479424
122.640351675
121.603816218
120.531056666
119.421271473
118.273677271
117.08751235
115.862040694
114.596556671
113.290391203
111.942915057
110.553550358
109.121786154
107.64717503
106.129360937
104.568095825
102.963265082
101.314924945
99.6233621663
97.8891608924
96.1132094412
94.2968835103
92.4421588782
90.5517203517
88.6295457257
86.6808918764
84.7127497797
82.7342724336
80.7571328891
78.7957349268
76.8667950374
74.9877533269
146.013863068
145.863922264
145.677223619
145.461166988
145.221506498
144.968727158
144.710128288
144.449425375
144.188091709
143.926201527
143.663014515
143.39740769
143.128140881
142.853993134
142.573821224
142.286575618
141.991295153
141.687092854
141.37313954
141.048648413
140.712861906
140.365041066
140.004457292
139.630385794
139.242103002
138.838878964
138.419979215
137.984661338
137.532174055
137.061756663
136.572638786
136.064040232
135.535171149
134.985232285
134.413415386
133.818903702
133.200872634
132.558490424
131.890918916
131.197314457
130.476828839
129.728610381
128.951805113
128.145558054
127.309014685
126.441322401
125.541632292
124.609101084
123.642893335
122.642183684
121.606159521
120.534024198
119.425000181
118.27833317
117.093296429
115.869196421
114.605378718
113.301235649
111.956213668
110.569824775
109.141660006
107.671407275
106.158866545
104.603977842
103.006855525
101.367813362
99.687405517
97.9664919853
96.2063938748
94.4089252529
92.5765408553
90.7125018286
88.8211166004
86.907986664
84.980330287
83.0473191048
81.1203937217
79.2134994246
77.3427675671
75.5251119908
146.087948136
145.932439797
145.726218465
145.489724054
145.234311228
144.971088182
144.70652558
144.443062825
144.180971731
143.919425367
143.657090485
143.392491222
143.124198322
142.850903687
142.571435578
142.28474685
141.989893023
141.686008737
141.37228643
141.047958676
140.712284183
140.364537124
140.003999213
139.629953639
139.241682022
138.838459585
138.419554932
137.984228021
137.531729351
137.061299561
136.57216935
136.063559427
135.534680743
134.984734841
134.4129143
133.818403326
133.200378393
132.558009029
131.89045866
131.196885532
130.476443712
129.728284254
128.951556451
128.145409266
127.308992986
126.441460913
125.541971275
124.609689391
123.643790271
122.643461171
121.607904827
120.536343026
119.428020551
118.282210239
117.098218117
115.875390093
114.613119306
113.310855304
111.968114392
110.584491371
109.159676642
107.693474833
106.185824973
104.636827108
103.046773222
101.416203026
99.7459515266
98.0372018104
96.2915651941
94.5111835631
92.6988550672
90.8581794077
88.9937377275
87.111303605
85.2181057727
83.3231273876
81.4374476411
79.5746349522
77.7506986096
75.9830469944
146.211071143
146.035301393
145.794212127
145.526973596
145.249865817
144.973298117
144.701670807
144.435224895
144.172510251
143.911547994
143.650304234
143.386912759
143.119748789
142.847422084
142.568740302
142.282666279
141.988278494
141.684738055
141.371262702
141.047107093
140.711548195
140.3638748
140.00338002
139.62935543
139.241089077
138.837861222
138.418943894
137.983599576
137.531080667
137.060629225
136.571477055
136.06284578
135.533947144
134.983983486
134.412148208
133.817626382
133.199595406
132.557225951
131.889682799
131.196125876
130.47571138
129.727592922
128.950922855
128.144853797
127.308540429
126.441141401
125.541821362
124.609753518
123.644122231
122.644126289
121.608982188
120.537928443
119.430230104
118.285184213
117.102126397
115.880437949
114.619554889
113.318978093
111.978285293
110.597145935
109.17533769
107.712767659
106.209497467
104.665773791
103.082063568
101.459095411
99.7979128503
98.099937628
96.3670445325
94.6016465773
92.806798577
90.9863175934
89.144927027
87.2884170602
85.4238482813
83.5598135758
81.706826998
79.8779684484
78.0892675671
76.3593970742
146.414470684
146.182844722
145.88156449
145.570694834
145.26595139
144.974012544
144.695110965
144.426050534
144.163149508
143.903119259
143.643200639
143.38115726
143.11519746
142.843872925
142.565987671
142.280525413
141.986594154
141.683385193
141.370143566
141.046147015
140.71069128
140.363079663
140.002616708
139.62860303
139.240331936
138.837088768
138.418148961
137.982777471
137.53022849
137.059745389
136.570560964
136.061897665
135.532967996
134.982975022
134.411112926
133.816567657
133.198517642
132.556134648
131.888584699
131.195029028
130.474625419
129.726529463
128.949896104
128.14388118
127.307643253
126.440345712
125.541158975
124.609263122
123.643850777
122.644130779
121.609331825
120.538707036
119.431539333
118.287147132
117.104891839
115.884185794
114.624501338
113.325383468
111.986463014
110.607472594
109.188265453
107.728838102
106.229356956
104.690189916
103.111943747
101.495508246
99.8421070593
98.153356856
96.4313365256
94.6786638588
92.8985803932
91.0950435329
89.2728272686
87.4376282789
85.5961974782
83.75652843
81.9282424011
80.1234933365
78.3577958951
76.6510041044
146.74852582
146.385354877
145.985614594
145.616749735
145.279243378
144.971236384
144.685955467
144.415323852
144.153016509
143.894408313
143.636082741
143.37550948
143.110789757
142.840457285
142.563336974
142.278447376
141.984933319
141.682019742
141.368980208
141.04511582
140.709741002
140.362172173
140.00172526
139.627707464
139.239418471
138.836147895
138.417174292
137.981764888
137.529175418
137.058650304
136.569423121
136.060716983
135.531744904
134.981710361
134.409807991
133.815224371
133.197138872
132.554724207
131.887147594
131.193571903
130.473156991
129.72506
128.948437986
128.14244942
127.306256072
126.43902511
125.539931589
124.608161268
123.642913694
122.643406167
121.608877042
120.538591562
119.431847086
118.287979493
117.10637105
115.886459518
114.627749267
113.329822412
111.992353646
110.615127765
109.198059901
107.74121925
106.2448571
104.70943985
103.135687024
101.524615572
99.877590541
98.1963820424
96.4832279666
94.7409006349
92.9727756925
91.1828992585
89.3760472904
87.5577711973
85.7344349608
83.9132551622
82.1025342121
80.3126531525
78.5568267046
76.853706463
147.298299114
146.644359321
146.092182776
145.654704129
145.283200649
144.961201223
144.672188552
144.402030403
144.141634502
143.885214056
143.628885714
143.369969052
143.106553058
142.837211637
142.560824549
142.276464129
141.983322095
141.680662157
141.367788553
141.044026008
140.708706492
140.36115973
140.000706745
139.62666722
139.238345576
138.835034667
138.416015608
137.980557472
137.527917443
137.057340955
136.568062315
136.059305242
135.530283322
134.980200583
134.408252161
133.81362479
133.195497045
132.553042822
131.885430296
131.191822994
130.471381132
129.723264078
128.946630792
128.14064192
127.304461808
126.437260697
125.538217412
124.606522045
123.6413794
122.642012841
121.607669302
120.537623402
119.431183885
118.287700463
117.106571842
115.887255183
114.629276955
113.332247709
111.995875591
110.619985039
109.204538105
107.749659341
106.255664903
104.723096463
103.152759912
101.545769318
99.9035965616
98.2281255555
96.5217096725
94.7872349162
93.0281747666
91.2486387258
89.4533992984
87.6478854611
85.838114344
84.0304733557
82.2316230866
80.4491229094
78.6900864621
76.9632073081
148.293536905
146.935721564
146.144976353
145.645136221
145.254299937
144.930549539
144.646144575
144.381646511
144.126253714
143.87381989
143.620519304
143.363839497
143.102044164
142.83385719
142.558278164
142.274471977
141.981700469
141.679279283
141.366551342
141.042868097
140.707570222
140.3600082
139.999530055
139.625452311
139.237083135
138.833718755
138.414641926
137.979120756
137.526414005
137.055768694
136.566419762
136.057591249
135.52849702
134.978341402
134.406319877
133.811620082
133.193423266
132.550902638
131.883226371
131.189558824
130.469061394
129.720893954
128.944216502
128.13819107
127.301983738
126.434766882
125.535721777
124.60404155
123.638934913
122.639629702
121.605377929
120.535460586
119.429194077
118.28593737
117.105100378
115.886154079
114.6286424
113.33219401
111.996540042
110.621532236
109.207164861
107.753600205
106.261198076
104.730549975
103.162518198
101.558280311
99.9193782153
98.2477699999
96.5458821964
94.8166892803
93.0637391882
91.2911999087
89.5038757935
87.7071842582
85.9070224429
84.1092565684
82.3194161306
80.5422641864
78.7726039502
76.9809267699
150.086645574
147.158548517
146.045022101
145.517953864
145.150857805
144.856289451
144.594838184
144.346479845
144.102132833
143.857230284
143.609077271
143.355921014
143.096531298
142.829974394
142.555485492
142.272393317
141.980074218
141.677923671
141.365339312
141.041713772
140.706441754
140.358883552
139.998370129
139.624236176
139.235799405
138.832360479
138.413205406
137.977608909
137.5248287
137.054110182
136.564688292
136.055787229
135.526620959
134.976393827
134.40430132
133.809530791
133.191262385
132.548670261
131.880923262
131.18718606
130.466620467
129.718386968
128.941646253
128.135561224
127.299298777
126.432032512
125.53294501
124.601230953
123.636101011
122.636785292
121.602538531
120.532645151
119.426425486
118.283243306
117.102514227
115.883715818
114.626399414
113.330203955
111.994872194
110.620269562
109.206406456
107.753464322
106.261825548
104.732108129
103.165204987
101.562328799
99.9250613694
98.255410376
96.5558728098
94.8294540388
93.0797592279
91.3110253874
89.5281412551
87.7366253866
85.9425239665
84.1523340723
82.372476632
80.6077361492
78.8376552718
76.9377731153
56.891001057
53.3389429942
50.9475455301
48.990176932
47.3182023423
45.8614554621
44.5759540516
43.4319901166
42.4078856808
41.4868863029
40.6555769617
39.90294344
39.2197747665
38.5982632554
38.0317225084
37.5143785843
37.0412101708
36.6078276812
36.2103748659
35.8454498484
35.5100390228
35.2014652769
34.9173420775
34.6555334682
34.4141238344
34.1913913856
33.9857830614
33.795895129
33.6204577077
33.4583182573
33.3084270722
33.1698280086
33.0416476836
32.9230846352
32.8134043808
32.7119318879
32.6180434932
32.5311647333
32.4507607854
32.3763294224
32.307393781
32.2435018663
32.1843226316
32.1298688214
32.0796674865
32.0332607748
31.9902707416
31.950449816
31.9135707586
31.8794128275
31.8477700371
31.8184546072
31.7913163726
31.7661741429
31.7428448354
31.7212273026
31.7011599238
31.6825176788
31.6651760299
31.6490281253
31.6339721457
31.6199147633
31.6067701033
31.5944600556
31.5829123062
31.5720608896
31.5618448838
31.5522067115
31.5430950844
31.5344606939
31.5262607943
31.5184544207
31.5110045079
31.5038772461
31.4970407526
31.4904664555
31.4841280429
31.4780023229
31.472064516
31.4662984124
31.4606825319
31.4552036182
31.4498463153
31.4445966271
31.4394417749
31.4343718208
31.4293754385
31.4244426724
31.4195657229
31.4147424053
31.40996974
31.4052365282
31.4005362305
31.3958609898
31.3912057413
31.3865706589
31.3819743805
31.3773908898
31.3728081514
31.3682224181
31.3636305027
31.3590290183
31.3544141582
31.3497829776
31.3451329527
31.3404611867
31.3357646639
31.3310402226
31.326285951
31.32149924
31.3166766406
31.3118163187
31.3069163684
31.3019761123
31.2969940634
31.2919690785
31.286901056
31.2817900677
31.2766354475
31.2714365386
31.2661931138
31.2609044284
31.2555595053
31.2501367203
31.2445862116
31.239207916
31.2342331055
31.2292566953
31.224207861
31.2191988535
31.2143012726
31.2095738944
31.2050703711
31.2008534431
31.1969966878
31.1935681606
31.1906388045
31.1882697267
31.1865048554
31.1852918369
31.1850518104
31.1853249636
31.1860796723
31.1867753822
31.1857562047
31.1787268089
31.1555146763
31.0942305998
30.9534164653
30.6623350642
30.1156110195
29.1802820699
27.723571863
25.6527262734
22.9418945954
19.6474632642
15.8883012006
11.6329574108
6.60625775329
1.57144963034
60.072325528
56.0195728003
53.3076386203
51.1553396697
49.3534663679
47.8036147427
46.4475726466
45.2481034458
44.1790270115
43.2207017647
42.3577801886
41.5779092159
40.870925887
40.2283312135
39.642929479
39.1085629047
38.6199205362
38.1723872663
37.7619332069
37.3850162944
37.0385121837
36.7196518966
36.4259744501
36.1552788152
35.9055960758
35.6751563304
35.4623670997
35.2657849236
35.0841095686
34.9161585265
34.7608532627
34.6172155153
34.4843485514
34.3614269584
34.247703615
34.1424833059
34.0451304276
33.9550601221
33.8717398746
33.7946707866
33.7234076512
33.6575391819
33.5966666593
33.5402458445
33.487994331
33.4396657564
33.3949777768
33.3536551565
33.3154380763
33.280082922
33.2473670321
33.2170828661
33.1890379943
33.1630430584
33.1389398684
33.1165964558
33.0958483952
33.0765654767
33.058637837
33.0419541958
33.0264119224
33.0119138805
32.9983760408
32.9857125499
32.9738441309
32.9627026809
32.9522216838
32.9423455399
32.9330199445
32.9241914367
32.9158156053
32.9078504932
32.9002589545
32.8930039467
32.886050538
32.8793744879
32.8729397848
32.8667345992
32.8607213568
32.8548943928
32.8492245065
32.8436978478
32.8382986965
32.833013236
32.8278269098
32.8227306279
32.8177123589
32.8127627604
32.807874462
32.8030315994
32.7982236751
32.7934460831
32.7886975608
32.7839702111
32.7792603972
32.774559999
32.76986101
32.7651629457
32.7604623208
32.7557600138
32.7510530823
32.7463388711
32.7416118072
32.7368728218
32.7321162388
32.7273397539
32.7225426782
32.7177177422
32.712867961
32.707986594
32.703072916
32.6981231282
32.6931373617
32.6881113036
32.683048319
32.677942589
32.6727986623
32.6676136907
32.6623908376
32.6571288614
32.6518328652
32.6465071552
32.6411599498
32.6358110598
32.6304696208
32.6251389284
32.619768994
32.614269679
32.6091752612
32.604144771
32.5992267856
32.5945259824
32.5900973084
32.5860095531
32.5823489308
32.5791978185
32.5766464796
32.5747497687
32.573617501
32.5732601798
32.5738020096
32.5750712171
32.5768639164
32.5784045453
32.5775172444
32.5689240145
32.5404906895
32.4670718802
32.3022690399
31.9690379445
31.3558904044
30.3268476307
28.7521969686
26.5489822091
23.7032276173
20.2758370017
16.3836714637
12.0105787835
6.89517969901
1.70493627272
62.2797430635
58.3463625544
55.4792701072
53.1954079797
51.2935263583
49.6671524081
48.2512544517
47.0038142052
45.8954030806
44.9041518615
44.013155724
43.2089527611
42.4805786626
41.8189472529
41.2164266046
40.6665318131
40.1637031798
39.703135579
39.2806498909
38.8925868922
38.5357287069
38.2072298134
37.9045655583
37.6254818345
37.3679651431
37.1302054422
36.9105751638
36.7076014608
36.5199550905
36.3464275965
36.1859180457
36.0374255567
35.9000338002
35.7728991997
35.6552563343
35.5463942663
35.4456626474
35.3524597026
35.2662362115
35.1864758264
35.112706291
35.0444852621
34.9814112624
34.9230262766
34.8688921952
34.8188411133
34.7725720847
34.7297872833
34.69021767
34.6536151744
34.6197480243
34.5884069575
34.5594001465
34.5325333206
34.5076433564
34.4845803682
34.4631834397
34.4433133203
34.4248491771
34.4076771834
34.391689208
34.3767847861
34.3628649374
34.3498516259
34.3376668782
34.3262379545
34.31549775
34.3053856187
34.2958459338
34.2868254759
34.2782761641
34.2701536591
34.2624203288
34.2550378848
34.2479685012
34.2411892933
34.2346599195
34.2283700827
34.2222754969
34.2163724829
34.210631148
34.2050385906
34.199578266
34.1942353005
34.1889942646
34.1838450321
34.1787749486
34.1737689249
34.1688172507
34.1639170074
34.1590670184
34.154254697
34.1494755216
34.144719924
34.1399841289
34.135262795
34.1305501117
34.1258426789
34.121133844
34.1164211108
34.1117006384
34.1069703594
34.1022240787
34.0974628337
34.0926812363
34.087875651
34.0830467659
34.0781867624
34.0732983121
34.068375182
34.0634163895
34.0584187131
34.053382243
34.0483028622
34.0431838159
34.038019768
34.0328152705
34.0275675855
34.0222806488
34.0169541153
34.011593211
34.0062026351
34.0007911427
33.9953743484
33.9899566209
33.9845383244
33.9791771949
33.9739836882
33.9686591658
33.9635499802
33.9585064693
33.9537767912
33.9493834227
33.9453876041
33.9418939466
33.9389837567
33.9367767344
33.93528545
33.9346660911
33.9349705716
33.9362335699
33.9383311753
33.9409277406
33.9429877544
33.941770663
33.9309504314
33.8964157195
33.8097527463
33.6198359925
33.2438009176
32.5648889876
31.4450630004
29.7581273885
27.4302034289
24.4574285589
20.9034000758
16.8816676517
12.3906037268
7.18361447315
1.83617393717
64.0839114554
60.3592652605
57.4553461448
55.1002457386
53.1302491961
51.4460199783
49.9823950383
48.6954896183
47.5540490257
46.5347397213
45.6195398289
44.7941508815
44.0469853603
43.3684920592
42.7506900388
42.1868319534