/*--------------------------------*- C++ -*----------------------------------*\
| =========                 |                                                 |
| \\      /  F ield         | OpenFOAM: The Open Source CFD Toolbox           |
|  \\    /   O peration     | Version:  2106                                  |
|   \\  /    A nd           | Website:  www.openfoam.com                      |
|    \\/     M anipulation  |                                                 |
\*---------------------------------------------------------------------------*/
FoamFile
{
    version     2.0;
    format      ascii;
    arch        "LSB;label=32;scalar=64";
    class       volScalarField;
    location    "0.47";
    object      p;
}
// * * * * * * * * * * * * * * * * * * * * * * * * * * * * * * * * * * * * * //

dimensions      [0 2 -2 0 0 0 0];

internalField   nonuniform List<scalar> 
11200
(
150.104333155
147.175730611
146.061877638
145.534543057
145.167208809
144.872424785
144.610774337
144.362228363
144.117701754
143.872624914
143.624300637
143.370974048
143.111412895
142.844681315
142.570012231
142.286732109
141.994215188
141.691855671
141.379054882
141.05522504
140.719742419
140.371958312
140.011214419
139.636842969
139.248158478
138.844459752
138.425030628
137.989140624
137.536045772
137.064989317
136.575202256
136.06590386
135.536301559
134.985591685
134.412959967
133.817582246
133.198624658
132.555243783
131.886587024
131.191793073
130.469991942
129.720305831
128.941848783
128.13372713
127.295039104
126.424874792
125.522316009
124.586435084
123.616293822
122.610942253
121.569416119
120.490734303
119.37389458
118.217869204
117.02159877
115.783984385
114.503877204
113.180066498
111.811263975
110.39608338
108.933015694
107.420398785
105.856374954
104.238843828
102.565395437
100.833224672
99.0390206919
97.1788231704
95.2478280895
93.240120282
91.1483103652
88.9630392021
86.6721077576
84.2593297478
81.7026193896
78.9703165903
76.0148212106
72.7635557952
69.0627887724
64.2995030818
148.311291688
146.953116794
146.162143172
145.662125456
145.271132623
144.947244343
144.662716421
144.398106482
144.142610183
143.890079185
143.636686085
143.379917076
143.118034852
142.849762685
142.574099914
142.290211606
141.997360446
141.694863817
141.382063559
141.058297829
140.722916687
140.375244861
140.014638711
139.640430212
139.251923453
138.848411477
138.429175305
137.993482624
137.540588171
137.069734233
136.580150703
136.071055393
135.541653875
134.991146094
134.418719803
133.823550691
133.204804947
132.561638772
131.893199691
131.198626569
130.477049467
129.727590795
128.949364916
128.141478529
127.30303063
126.433111998
125.530805191
124.595183885
123.625311547
122.620239989
121.579007312
120.500635388
119.384125748
118.2284551
117.032569731
115.795377911
114.515739571
113.192454488
111.82424798
110.40975134
108.94747668
107.435789102
105.872865036
104.256641447
102.584750271
100.854451985
99.0625301612
97.205147256
95.2776638951
93.2743949985
91.1882715157
89.0103371905
86.7290447884
84.3292583066
81.7905826806
79.0845098542
76.1702418945
72.9899455035
69.4408322814
65.3280546261
147.316102001
146.661900796
146.109542895
145.671921696
145.300293236
144.978185714
144.689079047
144.418837498
144.158366177
143.901876269
143.645482705
143.386503564
143.123026514
142.853624347
142.577175792
142.292752171
141.999543914
141.69681256
141.383860083
141.060009765
140.724599684
140.376990419
140.016438131
139.642289239
139.253851765
138.850416177
138.431261148
137.995653316
137.542847156
137.072085096
136.582597953
136.073605629
135.544317402
134.993925876
134.421613872
133.826559178
133.20792929
132.564881071
131.896562668
131.202113829
130.480665606
129.731341153
128.953256037
128.145518162
127.307228154
126.43747884
125.535355026
124.599933146
123.63028028
122.625452567
121.584493297
120.506430684
119.390274319
118.235010599
117.039597516
115.802957639
114.523968983
113.201453045
111.834161844
110.420760032
108.959800026
107.449694812
105.88868094
104.274790498
102.605785324
100.879071276
99.0916067512
97.2397931973
95.3193165435
93.3249378146
91.2502073915
89.0870626868
86.8254091361
84.4523310467
81.9511079194
79.2998802532
76.4706754405
73.4318800841
70.147518699
66.5945735483
146.766341586
146.402959449
146.003059164
145.634065101
145.296443408
144.988334693
144.70296394
144.432251644
144.169870552
143.911193688
143.652802969
143.392166658
143.127384644
142.856989395
142.579804677
142.294848013
142.001263039
141.698273747
141.385153157
141.06120156
140.725728199
140.378043009
140.017504926
139.64339094
139.254990461
138.851595819
138.432485391
137.99692461
137.54416686
137.073453509
136.584014186
136.075067022
135.545819561
134.99547055
134.423209228
133.828210904
133.209643608
132.566664999
131.898422184
131.20405535
130.482696422
129.733469564
128.955491823
128.147872812
127.309715598
126.440116005
125.538162346
124.602935452
123.633507611
122.628941583
121.588288548
120.510586198
119.394855709
118.240097989
117.045288565
115.809371648
114.531252799
113.209786506
111.843765649
110.431905843
108.972824901
107.465023852
105.906843739
104.296423938
102.631663804
100.910164516
99.129150601
97.2853701388
95.3749698091
93.3933396807
91.334922748
89.1929897029
86.9593091441
84.623839548
82.1744924921
79.597170485
76.8771289864
74.0046623586
70.983370507
67.8504336553
146.432294579
146.20049829
145.899083536
145.588102712
145.283258005
144.991228115
144.712244912
144.443110297
144.180140784
143.920046231
143.660066162
143.397962986
143.131943966
142.860559747
142.582613552
142.297088372
142.00309168
141.699814329
141.386501156
141.062429764
140.726895445
140.379201961
140.018653093
139.644538387
139.256160845
138.852804193
138.433741548
137.99823587
137.545539216
137.074892444
136.585525365
136.076656654
135.54749445
134.997235697
134.425066337
133.830163004
133.211691311
132.568809329
131.900667391
131.206406098
130.485159908
129.736055302
128.958211921
128.15074197
127.312751844
126.443341194
125.541603147
124.606624051
123.637482918
122.633250647
121.592988963
120.515748302
119.400565082
118.246458967
117.052428323
115.817444305
114.5404455
113.220327425
111.855931512
110.446039128
108.989347604
107.484445277
105.929795142
104.323701925
102.664272539
100.949364793
99.1765310434
97.3429494022
95.4453401991
93.4798694071
91.442040231
89.3265880895
87.1274047171
84.837571739
82.4496688723
79.9566874926
77.3544314982
74.6473430353
71.8567830921
69.0334469425
146.228903155
146.053000298
145.811803142
145.544473601
145.267281463
144.990636704
144.71893939
144.452429142
144.189654514
143.928635446
143.667336946
143.403891819
143.136674409
142.864293682
142.585556699
142.299425701
142.004978723
141.701376481
141.387836348
141.063612672
140.727982229
140.380233248
140.019656428
139.645542164
139.257180034
138.853849345
138.434820616
137.999354654
137.546702017
137.076102358
136.58678458
136.077966383
135.548855406
134.998648756
134.426533167
133.831686141
133.21327632
132.570463528
131.902399002
131.208226858
130.487082586
129.738093326
128.960380834
128.153060099
127.315240836
126.446027185
125.544517983
124.609806431
123.640980005
122.63712006
121.597300242
120.520585555
119.40603038
118.252676254
117.059548857
115.8256536
114.549973769
113.231455606
111.869008525
110.461481765
109.007660659
107.506252939
105.955874993
104.355010495
102.701992619
100.994971413
99.2318762189
97.4103730564
95.5278218938
93.581237113
91.5672626595
89.4821867796
87.3220433084
85.0828912265
82.76144592
80.35635619
77.87068967
75.3165996645
72.7210348691
70.1310907167
146.105787494
145.950179091
145.743874889
145.507309127
145.251829044
144.988543533
144.723923271
144.460406742
144.198264802
143.936669646
143.674287169
143.40964075
143.141300447
142.867957631
142.588440015
142.301700001
142.006792744
141.702852506
141.389071383
141.064681572
140.728941346
140.381124379
140.020511955
139.646386662
139.25802978
138.854715597
138.435711785
138.000277019
137.54766021
137.077100326
136.587825749
136.079054484
135.549994127
134.999842532
134.427787815
133.833008321
133.214673013
132.571942557
131.903969043
131.209895961
130.488858596
129.739988112
128.962410318
128.155245003
127.317606162
126.448603465
125.547342082
124.612923119
123.644443476
122.64099591
121.601668297
120.525542912
119.411695376
118.259193081
117.067092917
115.834437499
114.560249696
113.243537763
111.883273431
110.478397935
109.027809494
107.530348805
105.984785925
104.389808795
102.744005675
101.045847211
99.2936692752
97.4856578817
95.6198431882
93.6941108395
91.7062466915
89.6540446336
87.5355253752
85.3493564185
83.0956064563
80.7770334755
78.4011862774
75.9836620494
73.5513363764
71.1435639045
146.031708981
145.881698116
145.694940162
145.478831272
145.239120546
144.986293571
144.727649748
144.466904
144.205528976
143.943598323
143.680371138
143.414723868
143.145415881
142.871225902
142.591010326
142.303719287
142.00839136
141.704139299
141.390133632
141.065587266
140.729742282
140.381859406
140.021209827
139.64706809
139.258710648
138.855406754
138.436421242
138.001010831
137.548423133
137.07789625
136.588658302
136.079927031
135.550910437
135.000806572
134.428803605
133.834080503
133.215806939
132.573144036
131.905244856
131.211255753
130.490318261
129.74156561
128.964124568
128.157118275
127.319665658
126.45088209
125.54987979
124.61576862
123.647655875
122.644646859
121.605845222
120.530352161
119.417266144
118.265682049
117.074691029
115.843377692
114.570819275
113.2560815
111.898218094
110.496259049
109.049213416
107.556061949
106.015750266
104.427181466
102.789211264
101.100644143
99.3602346098
97.5666967608
95.718729099
93.8150666052
91.8545769659
89.8364302777
87.7603807946
85.6272408426
83.4396236717
81.2030628203
78.9275943691
76.6298220139
74.3344249783
72.0734094547
145.989433804
145.839985402
145.663567583
145.45982604
145.230288943
144.984575125
144.730208714
144.471563039
144.210848131
143.948745047
143.684937865
143.418568634
143.148545732
142.873720515
142.592976187
142.305264543
142.00961358
141.705120825
141.390940972
141.066272526
140.730345359
140.382410281
140.021730768
139.647576369
139.259215866
138.855918695
138.436946498
138.001554345
137.548988938
137.078487635
136.589278458
136.080579205
135.551598006
135.001533302
134.429573815
133.834899279
133.216680604
132.574080607
131.906254727
131.212351409
130.491511121
129.742870541
128.965561404
128.15871135
127.321444484
126.452882372
125.552144876
124.61835098
123.650619433
122.648069059
121.609819493
120.53499219
119.422710114
118.272097941
117.082282752
115.852392812
114.581556986
113.268909217
111.913578558
110.514696524
109.071391695
107.582790634
106.048017728
104.466196055
102.836452618
101.157927068
99.4297886876
97.6512661823
95.8216966106
93.9406070708
92.0078426542
90.0237701534
87.9895845961
85.9077773793
83.7827946897
81.6219317926
79.4364385757
77.2427256698
75.0628363002
72.9229478949
145.970158595
145.820280025
145.648314857
145.45037608
145.225810311
144.983685751
144.731544111
144.474027775
144.213692367
143.951522084
143.68742167
143.420675328
143.150273419
142.875108471
142.59407981
142.306141231
142.010315683
141.705692817
141.391418963
141.066684915
140.730713969
140.382751579
140.022056926
139.647896243
139.259537029
138.856245911
138.437283555
138.001904363
137.549354687
137.078871784
136.589683654
136.081008336
135.552054315
135.002020525
134.430096534
133.835462913
133.21729176
132.574747235
131.906985826
131.213157616
130.492407114
129.743873759
128.966692498
128.159995188
127.322911368
126.454569122
125.554096268
124.620621244
123.653274392
122.651188611
121.613500631
120.539352685
119.427892644
118.278276347
117.089667455
115.861240455
114.592179607
113.281684427
111.928966623
110.53325704
109.093803823
107.60988093
106.080791725
104.505878445
102.884535299
101.216228102
99.5005239003
97.7371360819
95.9259898497
94.0673229012
92.1618273059
90.2108723963
88.2167978338
86.1833569061
84.1162575095
82.0238442194
79.9178400577
77.8139984204
75.7320083066
73.6937923137
145.970162443
145.820297374
145.648343119
145.450413479
145.225856034
144.983738887
144.731603718
144.474092969
144.21376244
143.951596413
143.687499786
143.420756925
143.150358306
142.875196549
142.59417109
142.306235758
142.010413571
141.705794208
141.391524014
141.066793798
140.730826917
140.382868911
140.022178992
139.648023441
139.259669999
138.856385283
138.437430213
138.002059348
137.549519362
137.079047659
136.589872691
136.081213064
135.552277699
135.002266215
134.430368932
133.835767225
133.21763437
132.575135741
131.907429948
131.213669176
130.493000146
129.744565271
128.967503341
128.160950646
127.324042153
126.455912577
125.555697757
124.622535805
123.655568627
122.653943381
121.616814427
120.54334468
119.432707495
118.284088901
117.096690993
115.869733084
114.602455686
113.294121021
111.944025604
110.551499161
109.115907981
107.636670538
106.113265484
104.545246975
102.932265211
101.274093114
99.5706633658
97.8221253828
96.0289246454
94.1919109334
92.3125114294
90.3930294336
88.4365797527
86.4477825522
84.4331534665
82.4015936934
80.364888795
78.3380556491
76.3389959107
74.3868014835
145.989445399
145.84003778
145.663652909
145.459938913
145.230426855
144.984735228
144.730388093
144.471759098
144.211058723
143.948968365
143.685172503
143.418813657
143.148800596
142.873984918
142.593250137
142.305548205
142.009907272
141.705424961
141.391256036
141.066599069
140.730684067
140.382762069
140.022096644
139.647957631
139.259614294
138.856336198
138.437385596
138.002018102
137.549481259
137.079013469
136.589843546
136.081190931
135.552265216
135.00226666
134.430386472
133.835806956
133.217702675
132.575240307
131.907580067
131.213876236
130.493277998
129.744930751
128.967977007
128.161557432
127.324812435
126.456883205
125.55691345
124.624050926
123.657448932
122.656268697
121.619681686
120.546871088
119.43703566
118.289391872
117.103177688
115.877657538
114.612126014
113.305910536
111.95838623
110.568975466
109.137164242
107.662506762
106.14464694
104.583336725
102.978461605
101.330077246
99.6384682796
97.904221059
96.1282251591
94.3118549353
92.4570884411
90.5666072811
88.6443873289
86.6956881383
84.7275014032
82.7489796265
80.7717955366
78.8103528341
76.881367402
75.0022780675
146.031728491
145.881786601
145.695084111
145.479021334
145.239352343
144.98656224
144.727950331
144.467232164
144.205881107
143.943971456
143.680762987
143.415132889
143.145841138
142.871666894
142.591467052
142.304192044
142.008880657
141.704645823
141.390658199
141.066130828
140.730306034
140.382444798
140.021818471
139.647702301
139.259372911
138.856100461
138.437150556
138.001780785
137.549240135
137.078768298
136.589594932
136.08094022
135.55201471
135.002019309
134.430146095
133.835578412
133.217491752
132.575054425
131.907428183
131.213769287
130.493229327
129.744956533
128.968097009
128.161795663
127.32519801
126.457451569
125.557707663
124.625123233
123.658862652
122.658100678
121.622025146
120.549838896
119.440764607
118.294048137
117.108962307
115.884813672
114.620947974
113.316755919
111.971684599
110.585248309
109.157037014
107.686738129
106.174151742
104.619217692
103.022049829
101.382963462
99.7025136169
97.981557585
96.2214152977
94.4239020862
92.5914726899
90.7273885844
88.8359583596
86.9227836362
84.9950831495
83.0620283005
81.135059442
79.2281219029
77.3573466871
75.5396463818
146.105815191
145.950305726
145.744080365
145.507579551
145.252157909
144.98892374
144.724347737
144.46086935
144.198760503
143.937194366
143.674837798
143.410215112
143.141897212
142.868576105
142.589080167
142.302362237
142.007477739
141.703561183
141.389804839
141.065441096
140.729728565
140.38194127
140.021360962
139.647270797
139.258952545
138.855681505
138.436726542
138.001347583
137.548795313
137.078310869
136.589125009
136.080458752
135.551523586
135.001521139
134.429644236
133.835077248
133.216996737
132.574572284
131.906967111
131.213339497
130.492843329
129.744629583
128.967847458
128.161646024
127.325175572
126.45758945
125.558046185
124.625711221
123.659759426
122.659378211
121.623770522
120.552157857
119.443785425
118.297925188
117.113884016
115.891007192
114.62868802
113.326375541
111.983586312
110.599915161
109.175053545
107.708805634
106.20111069
104.652068758
103.061971844
101.431357759
99.761061929
98.0522678818
96.3065870588
94.5261612007
92.7137880047
90.8730671729
89.0085804864
87.1261015972
85.2328598521
83.3378385002
81.4521165624
79.5892624855
77.7652854744
75.997593213
146.228939508
146.053168583
145.812075095
145.544829901
145.267713
144.991133819
144.719492748
144.453030878
144.190298199
143.929315961
143.668050379
143.404635403
143.137446426
142.865093307
142.586383811
142.300280769
142.00586252
141.702290025
141.388780857
141.064589484
140.728992748
140.381279217
140.020742094
139.646672974
139.258359968
138.855083489
138.436115692
138.000719215
137.548146543
137.077640265
136.58843231
136.079744569
135.550789298
135.00076897
134.428877273
133.834299441
133.216212914
132.573788394
131.906190383
131.212578918
130.492109973
129.743937198
128.967212884
128.161089657
127.324722236
126.457269333
125.557895861
124.625775062
123.660091206
122.660043377
121.624847982
120.553743393
119.445994965
118.300899459
117.117792171
115.896054728
114.635123037
113.334497768
111.993756811
110.612569841
109.190715011
107.72809919
106.224783905
104.681015746
103.097261575
101.474249886
99.8130239459
98.1150049611
96.3820676578
94.6166251534
92.8217323236
91.0012060888
89.1597704026
87.3032156473
85.4386030996
83.574526037
81.7214985242
79.8926005187
78.1038619319
76.3739553726
146.432340032
146.200712818
145.899428153
145.588551578
145.283798716
144.991848068
144.71293243
144.443855794
144.180936528
143.92088616
143.66094564
143.398878726
143.132893938
142.86154307
142.583630216
142.298139073
142.004177516
141.700936665
141.387661387
141.063629275
140.728135859
140.380484275
140.019979019
139.645920887
139.257603156
138.854311249
138.435320858
137.99989711
137.547294246
137.076756155
136.587515809
136.078795944
135.549809528
134.999759808
134.427841246
133.833239964
133.215134382
132.572696343
131.90509159
131.211481369
130.491023289
129.742873073
128.966185571
128.160116552
127.32382464
126.456473354
125.55723326
124.625284424
123.659819645
122.660048036
121.625197933
120.5545226
119.447304425
118.302862566
117.12055767
115.899802493
114.640069232
113.340902782
112.001934161
110.622896168
109.203642427
107.744169466
106.244643536
104.705432387
103.127142617
101.510663676
99.8572190794
98.1684251593
96.4463605601
94.6936430627
92.9135144335
91.1099321393
89.2876705938
87.4524268015
85.6109523402
83.7712412352
81.9429149909
80.1381279675
78.3723954634
76.6655721531
146.766395798
146.40322351
146.003478582
145.634606548
145.297090517
144.989071471
144.703776275
144.43312829
144.170802601
143.912174215
143.653826725
143.393229955
143.128485299
142.858126574
142.58097873
142.296060309
142.002516062
141.699570762
141.38649772
141.062597893
140.727185462
140.379576773
140.019087732
139.64502546
139.256689897
138.85337054
138.434346236
137.998884465
137.54624099
137.07566073
136.586377548
136.077614793
135.548585892
134.998494535
134.426535647
133.831895986
133.213754824
132.571284993
131.903653496
131.210023343
130.489553912
129.741402558
128.964726407
128.158683821
127.322436608
126.455152109
125.556005435
124.624182274
123.658882305
122.659322983
121.624743021
120.55440705
119.447612062
118.303694676
117.122036713
115.902075789
114.643316483
113.345340918
112.007823967
110.630550688
109.21343641
107.756550295
106.260143613
104.724682541
103.150886288
101.539771496
99.8927029881
98.2114507641
96.4982524052
94.7558800389
92.9877095122
91.1977873777
89.3908900214
87.5725690923
85.7491890483
83.9279669246
82.1172057045
80.3272873359
78.5714274392
76.8682792564
147.316169383
146.662228092
146.110046719
145.672560683
145.301047347
144.979035708
144.690008628
144.419834001
144.159419686
143.90297902
143.646628774
143.38768865
143.12424778
142.854880176
142.578465614
142.294076426
142.000904278
141.6982127
141.385305732
141.061507832
140.726150801
140.378564287
140.01806916
139.6439852
139.255616951
138.852257252
138.433187411
137.997676811
137.544982744
137.074351036
136.585016345
136.076202593
135.547123792
134.996984219
134.424979312
133.830295951
133.212112543
132.569603256
131.901936086
131.208274044
130.487777682
129.73960622
128.962918753
128.15687585
127.320641959
126.453387465
125.554291051
124.622543121
123.657348653
122.657930965
121.623536001
120.553439601
119.446949668
118.303415825
117.122237619
115.902871527
114.644844147
113.347766171
112.011345931
110.635408151
109.219914976
107.764990875
106.270951927
104.738339702
103.1679597
101.560925692
99.9187092506
98.2431942643
96.5367340258
94.8022141897
93.0431081077
91.2635260758
89.4682411226
87.6626821708
85.8528666538
84.0451825913
82.2462912754
80.4637530884
78.7046826819
76.9777769189
148.311407199
146.953590105
146.16283995
145.662992278
145.272146023
144.948383339
144.663963908
144.399449331
144.1440381
143.891584054
143.638261595
143.38155839
143.119738251
142.851525159
142.575918712
142.292083788
141.99928219
141.696829392
141.384068073
141.060349525
140.725014036
140.377412326
140.016892082
139.64276995
139.25435419
138.850941065
138.431813471
137.996239768
137.543479007
137.072778445
136.58337345
136.074488252
135.545337135
134.995124634
134.423046529
133.828290695
133.210038476
132.567462759
131.899731792
131.206009623
130.485457762
129.737235929
128.960504233
128.154424792
127.318163802
126.450893517
125.551795276
124.620062583
123.654904063
122.65554789
121.621244935
120.551276785
119.444960061
118.301652813
117.120765828
115.901769951
114.644208847
113.347711723
112.012009693
110.636954781
109.222541334
107.768931589
106.27648508
104.745793163
103.177717958
101.573436657
99.9344909671
98.2628386988
96.5609062127
94.8316680559
93.0786719086
91.3060864193
89.5187164972
87.7219793065
85.9217721363
84.1239619438
82.33407851
80.5568854765
78.7871865536
76.9954800477
150.104515734
147.176416362
146.062884992
145.535809219
145.168703185
144.874122556
144.612656846
144.364282033
144.119916611
143.874993856
143.626819005
143.373639405
143.11422494
142.847641949
142.573125618
142.290004734
141.997655541
141.695473382
141.382855678
141.059194642
140.723885145
140.37628713
140.015731576
139.641553199
139.253069823
138.84958215
138.4303763
137.994727402
137.541893274
137.071119561
136.581641669
136.072684012
135.543460877
134.993176873
134.421027834
133.826201391
133.207877527
132.565230228
131.897428443
131.203636654
130.483016666
129.734728865
128.957933949
128.151794864
127.31547893
126.448159458
125.549019124
124.617252597
123.652070619
122.652703705
121.618406001
120.548461668
119.442191645
118.298958992
117.11817972
115.899331625
114.641965928
113.345721815
112.01034211
110.635692458
109.221783273
107.768796005
106.277112828
104.747351406
103.180404725
101.577485062
99.9401739036
98.2704784525
96.5708958233
94.8444316458
93.0946907873
91.3259105613
89.5429802513
87.7514182643
85.9572706341
84.1670345473
82.3871307647
80.6223425492
78.852210947
76.952288175
56.9054798536
53.3533689099
50.9619524599
49.0045541184
47.3325293481
45.8757042313
44.5900925314
43.4459876171
42.4217176707
41.5005370552
40.6690411501
39.9162254929
39.2328901132
38.6112374739
38.0445892077
37.527177939
37.0539882673
36.6206332319
36.2232569731
35.858455251
35.5232109498
35.2148410151
34.9309510596
34.669399576
34.4282648778
34.2058190805
34.0005048862
33.8109153227
33.6357762188
33.4739310989
33.3243285783
33.1860108926
33.0581024514
32.9398023861
32.8303766953
32.7291506862
32.6355031089
32.5488620398
32.4686998343
32.3945286337
32.325896943
32.2623857514
32.2036046944
32.1491889501
32.0987935386
32.0520922281
32.0088152425
31.9688605506
31.9320505452
31.8980534072
31.8665888851
31.8374586514
31.81044394
31.7853824359
31.7621283873
31.7405576995
31.7205338497
31.7019258799
31.6846161963
31.6685009329
31.6534887692
31.6394842052
31.6263964291
31.6141439391
31.6026529298
31.5918580342
31.5816979577
31.5721142675
31.5630556486
31.5544755394
31.5463287577
31.5385736655
31.531172776
31.5240946704
31.5173047242
31.5107781809
31.5044851746
31.4984058047
31.4925167104
31.4867992205
31.4812370457
31.4758200779
31.4705298335
31.4653528409
31.4602743031
31.4552831716
31.4503665524
31.4455176565
31.4407366046
31.4360287436
31.4313648415
31.4267356269
31.4221333982
31.4175530315
31.4129889358
31.408435467
31.4038886743
31.3993453713
31.3948012984
31.3902522807
31.3856956734
31.3811275473
31.3765443405
31.3719425347
31.3673183279
31.3626685891
31.3579903122
31.3532806844
31.3485372228
31.3437576659
31.3389400294
31.3340825626
31.3291836222
31.3242411549
31.3192532214
31.3142186359
31.3091359992
31.30400431
31.2988226266
31.2935902493
31.288307228
31.2829736965
31.2775890122
31.2721463767
31.2666213679
31.2609651954
31.25538359
31.2503033059
31.2451812357
31.2399988423
31.2348669871
31.2298668403
31.2250522186
31.2204783973
31.2162045504
31.2122880921
31.20877883
31.2057162991
31.2031013601
31.2009243949
31.1992990105
31.1979447899
31.1967388132
31.1950804975
31.1913118747
31.1812214336
31.1547307671
31.0901764773
30.9462899955
30.6525253443
30.1036636324
29.1669264445
27.7097384751
25.639433084
22.9300296791
19.6376300175
15.8807362896
11.6274850769
6.60265257093
1.57022057144
60.0868279356
56.0340299966
53.322066847
51.1697261891
49.3677905992
47.8178476437
46.4616836369
45.262063234
44.1928138812
43.2343024455
42.3711923379
41.5911399105
40.8839929293
40.2412629155
39.6557601553
39.1213345219
38.6326792471
38.185182136
37.7748121903
37.3980252653
37.0516934369
36.7330402589
36.4395982377
36.1691596295
35.9197509987
35.6895951329
35.4770957332
35.2808075428
35.0994252179
34.9317609795
34.7767376567
34.6333714714
34.5007653626
34.3780950109
34.2646086036
34.1596116529
34.0624667003
33.972586783
33.8894297488
33.812495031
33.7413240138
33.6754860055
33.6145933927
33.5582791536
33.5062143931
33.4580895814
33.4136144176
33.3724495472
33.3343086019
33.2989955296
33.2663141678
33.2360630833
33.2080581238
33.1821240019
33.1580984779
33.1358169654
33.1151438342
33.0959410473
33.0780882012
33.0614799237
33.0460061224
33.0315598105
33.0180701037
33.0054494093
32.9936271841
32.9825352347
32.9721051644
32.9622808138
32.9530048757
32.9442319346
32.9359118403
32.9280021156
32.9204655065
32.9132631127
32.9063679811
32.8997427087
32.8933700531
32.8872139881
32.8812645882
32.8754939888
32.8698850051
32.8644108668
32.8590591927
32.8538184426
32.8486742634
32.8436202496
32.8386400146
32.8337283202
32.8288726499
32.824060806
32.8192873052
32.8145506094
32.8098438921
32.8051595399
32.8004962351
32.7958436569
32.7912020276
32.7865647709
32.7819289377
32.7772916366
32.7726474158
32.7679953449
32.7633289844
32.758647243
32.7539446099
32.7492184664
32.7444661831
32.7396834044
32.7348692074
32.7300201513
32.7251341569
32.7202097617
32.7152444349
32.7102373966
32.7051854941
32.7000882495
32.6949441662
32.6897529953
32.6845140267
32.6792282704
32.6738961893
32.6685214949
32.6631089982
32.6576658901
32.6522045175
32.6467489092
32.6413357919
32.6359136114
32.6304001408
32.6252204793
32.620118773
32.6151765507
32.6104772279
32.6060818666
32.6020591967
32.5984814707
32.5954157591
32.5929193243
32.5909813486
32.58972227
32.5890412846
32.5888322285
32.588794481
32.5881159204
32.5846139258
32.5730943711
32.5414909124
32.464880248
32.2970260302
31.961055987
31.3456353804
30.3149954426
28.7396687863
26.5368101588
23.6923235248
20.266808072
16.3767633843
12.005589016
6.8918327227
1.70379082176
62.294250714
58.3608296641
55.4936983602
53.2097825568
51.3078250879
49.6813463977
48.2653144721
47.0177132622
45.9091225473
44.9176806477
44.0264947053
43.2221121266
42.4935787632
41.8318185581
41.2292056105
40.679261701
40.1764309329
39.7159095889
39.2935175596
38.9055927231
38.5489129246
38.2206252268
37.9181990544
37.6393737092
37.3821302296
37.1446528213
36.9253102918
36.7226264052
36.5352679747
36.3620218717
36.2017872952
36.0535585411
35.916418191
35.7895235441
35.6721044728
35.5634496906
35.4629064879
35.3698728985
35.2837925227
35.2041510573
35.1304766873
35.0623249374
34.9992943996
34.9410021908
34.8871006891
34.8372596844
34.7911908585
34.7486121314
34.7091315232
34.6725416043
34.6386978658
34.6073959206
34.5784326213
34.5516173503
34.5267809603
34.5037619378
34.4824214704
34.4626116212
34.444211301
34.4271069408
34.4111856823
34.3963384391
34.3824821163
34.3695291234
34.3574031776
34.3460340389
34.3353514712
34.3252962374
34.315809244
34.3068423201
34.2983435027
34.2902703093
34.2825841091
34.2752455237
34.2682234141
34.2614828569
34.2550005963
34.2487453846
34.2426981287
34.2368272136
34.231126128
34.2255764348
34.2201597968
34.2148654916
34.2096756618
34.2045786491
34.1995601836
34.1946159096
34.1897333396
34.1849047583
34.1801189725
34.1753696886
34.1706505313
34.1659538308
34.1612771215
34.1566101611
34.1519524686
34.1472982653
34.1426439295
34.1379861766
34.1333194529
34.1286425353
34.1239494657
34.1192391088
34.1145059754
34.1097471386
34.1049602878
34.1001409905
34.0952880069
34.0903983476
34.085469775
34.0805005704
34.0754883817
34.070432806
34.0653308689
34.0601821366
34.0549852786
34.0497402703
34.0444472726
34.0391078043
34.0337233637
34.0282987749
34.0228400579
34.0173573168
34.0118655583
34.0063822062
34.0009099453
33.995489696
33.9902173772
33.9849173432
33.9797667018
33.9748108555
33.9701814137
33.9659294717
33.9621223159
33.9588461106
33.9561847971
33.9542209523
33.9529379234
33.9523696536
33.9525608968
33.9533144263
33.9542272447
33.9542275378
33.9505578024
33.9369811379
33.8994171645
33.8096758064
33.6167576496
33.2379508914
32.5566458545
31.435036458
29.7472144063
27.4194424662
24.4477428305
20.8953992365
16.8755962641
12.3862379376
7.18062810485
1.83515199898
64.0984198232
60.3737258722
57.4697564469
55.1145891363
53.144502323
51.4601546923
49.9963840029
48.7093082196
47.5676821687
46.5481786814
45.6327887611
44.8072233294
44.0599042545
43.3812899403