/*--------------------------------*- C++ -*----------------------------------*\
| =========                 |                                                 |
| \\      /  F ield         | OpenFOAM: The Open Source CFD Toolbox           |
|  \\    /   O peration     | Version:  2106                                  |
|   \\  /    A nd           | Website:  www.openfoam.com                      |
|    \\/     M anipulation  |                                                 |
\*---------------------------------------------------------------------------*/
FoamFile
{
    version     2.0;
    format      ascii;
    arch        "LSB;label=32;scalar=64";
    class       surfaceScalarField;
    location    "0.11";
    object      phi;
}
// * * * * * * * * * * * * * * * * * * * * * * * * * * * * * * * * * * * * * //

dimensions      [0 3 -1 0 0 0 0];

oriented        oriented;

internalField   nonuniform List<scalar> 
799
(
1.6803e-32
4.36003e-32
5.57527e-32
4.38706e-32
1.75912e-32
-5.02683e-32
-1.10864e-31
-1.5795e-31
-1.69201e-31
-1.32641e-31
-7.80398e-32
-1.69574e-32
2.03226e-32
2.88692e-32
6.08981e-33
-3.43313e-32
-8.64141e-32
-1.39956e-31
-1.81113e-31
-2.09911e-31
-2.02563e-31
-1.67246e-31
-1.06839e-31
-3.68199e-32
3.02732e-33
1.13904e-32
-3.10052e-32
-1.02359e-31
-1.69375e-31
-2.22687e-31
-2.26252e-31
-1.99662e-31
-1.54039e-31
-9.96943e-32
-7.55046e-32
-6.512e-32
-8.3007e-32
-1.21589e-31
-1.52145e-31
-1.89509e-31
-1.99139e-31
-1.87306e-31
-1.64475e-31
-1.18382e-31
-9.37477e-32
-8.40367e-32
-1.00515e-31
-1.50028e-31
-1.90521e-31
-2.27335e-31
-2.29772e-31
-1.9642e-31
-1.53713e-31
-9.98629e-32
-7.58814e-32
-8.24516e-32
-1.15949e-31
-1.75415e-31
-2.21175e-31
-2.46663e-31
-2.33824e-31
-1.80985e-31
-1.19176e-31
-6.45211e-32
-5.19685e-32
-9.29585e-32
-1.66983e-31
-2.50714e-31
-2.96339e-31
-2.79004e-31
-2.07786e-31
-1.06181e-31
-2.98666e-32
-1.34379e-32
-6.05976e-32
-1.54436e-31
-2.40985e-31
-2.85636e-31
-2.74114e-31
-2.14831e-31
-1.48542e-31
-9.94709e-32
-8.4026e-32
-9.89371e-32
-1.22948e-31
-1.48769e-31
-1.6821e-31
-1.86207e-31
-2.06356e-31
-2.18456e-31
-2.16317e-31
-1.85017e-31
-1.32278e-31
-7.86863e-32
-4.58371e-32
-6.45382e-32
-1.22936e-31
-2.04514e-31
-2.73672e-31
-2.8683e-31
-2.5134e-31
-1.65352e-31
-7.43044e-32
-2.08437e-32
-1.15812e-32
-6.92972e-32
-1.48328e-31
-2.2188e-31
-2.6557e-31
-2.48326e-31
-2.04243e-31
-1.41238e-31
-9.43495e-32
-8.55293e-32
-9.67364e-32
-1.27122e-31
-1.4373e-31
-1.41002e-31
-1.28033e-31
-1.1391e-31
-1.236e-31
-1.53864e-31
-1.95167e-31
-2.25758e-31
-2.24108e-31
-1.89206e-31
-1.29608e-31
-6.99188e-32
-3.18779e-32
-2.62923e-32
-5.60148e-32
-1.08168e-31
-1.68911e-31
-2.24021e-31
-2.55676e-31
-2.58202e-31
-2.24276e-31
-1.59929e-31
-8.59811e-32
-2.09978e-32
4.49293e-33
-1.78686e-32
-8.08751e-32
-1.64872e-31
-2.29518e-31
-2.55819e-31
-2.32135e-31
-1.71697e-31
-1.08779e-31
-6.52815e-32
-6.43153e-32
-9.87054e-32
-1.45525e-31
-1.82434e-31
-1.8278e-31
-1.49706e-31
-9.87246e-32
-5.68194e-32
-5.38192e-32
-9.36694e-32
-1.64585e-31
-2.31225e-31
-2.57959e-31
-2.26843e-31
-1.46439e-31
-5.68655e-32
1.43993e-33
-6.251e-33
-7.25233e-32
-1.62249e-31
-2.32777e-31
-2.39424e-31
-1.9278e-31
-1.15049e-31
-5.20904e-32
-4.53903e-32
-8.10595e-32
-1.49622e-31
-1.98901e-31
-2.0073e-31
-1.64142e-31
-9.28182e-32
-4.29919e-32
-2.91702e-32
-5.78471e-32
-1.24802e-31
-1.80329e-31
-2.1632e-31
-2.08154e-31
-1.60583e-31
-1.04719e-31
-4.8249e-32
-2.46669e-32
-3.2631e-32
-6.35828e-32
-1.11508e-31
-1.48468e-31
-1.72029e-31
-1.7512e-31
-1.56795e-31
-1.29605e-31
-9.34106e-32
-5.89515e-32
-3.57117e-32
-2.77183e-32
-4.54329e-32
-8.35791e-32
-1.28309e-31
-1.63167e-31
-1.64429e-31
-1.28441e-31
-6.82401e-32
-8.8021e-33
1.4604e-32
-1.13674e-32
-7.65106e-32
-1.48955e-31
-1.83198e-31
-1.54001e-31
-6.80109e-32
3.85246e-32
1.09119e-31
1.03338e-31
2.11743e-32
-1.03292e-31
-2.03125e-31
-2.22896e-31
-1.50415e-31
-8.41428e-33
1.31661e-31
2.0652e-31
1.88239e-31
8.19011e-32
-4.70988e-32
-1.3916e-31
-1.52317e-31
-7.40452e-32
4.74712e-32
1.66384e-31
2.34166e-31
2.26589e-31
1.68271e-31
8.82831e-32
3.17485e-32
2.73858e-32
7.24449e-32
1.49913e-31
2.25507e-31
2.70223e-31
2.74672e-31
2.53118e-31
2.29745e-31
2.35095e-31
2.79916e-31
3.45414e-31
4.09626e-31
4.36482e-31
4.18545e-31
3.80425e-31
3.49896e-31
3.70568e-31
4.50213e-31
5.63022e-31
6.76442e-31
7.43689e-31
7.52449e-31
7.25226e-31
6.8966e-31
6.87852e-31
7.34196e-31
8.11075e-31
9.05947e-31
9.88123e-31
1.05081e-30
1.10806e-30
1.15719e-30
1.21646e-30
1.27893e-30
1.33496e-30
1.39478e-30
1.45063e-30
1.51897e-30
1.60159e-30
1.68719e-30
1.77485e-30
1.85133e-30
1.92762e-30
2.02018e-30
2.14087e-30
2.29146e-30
2.44832e-30
2.58037e-30
2.66327e-30
2.70467e-30
2.73649e-30
2.81047e-30
2.96162e-30
3.18357e-30
3.44284e-30
3.67333e-30
3.83683e-30
3.9309e-30
3.98786e-30
4.07523e-30
4.22753e-30
4.45664e-30
4.73194e-30
4.99787e-30
5.2284e-30
5.40975e-30
5.57293e-30
5.75724e-30
5.9807e-30
6.25228e-30
6.54014e-30
6.81913e-30
7.07715e-30
7.3138e-30
7.56302e-30
7.8425e-30
8.16359e-30
8.52023e-30
8.87758e-30
9.22174e-30
9.53831e-30
9.83901e-30
1.0159e-29
1.0513e-29
1.09233e-29
1.13739e-29
1.18329e-29
1.22807e-29
1.26848e-29
1.30632e-29
1.34409e-29
1.38482e-29
1.43276e-29
1.4867e-29
1.54533e-29
1.6043e-29
1.65834e-29
1.70596e-29
1.74746e-29
1.78314e-29
1.83488e-29
1.8976e-29
2.04304e-29
2.29488e-29
2.66603e-29
3.36333e-29
3.64133e-29
3.9298e-29
2.23243e-29
-2.0328e-29
-7.16013e-29
-1.7709e-28
-1.67624e-28
-1.06721e-28
1.81411e-28
8.25758e-28
1.19124e-27
1.83385e-27
1.07237e-27
-7.45375e-28
-3.02054e-27
-7.5268e-27
-7.19707e-27
-5.9146e-27
1.76489e-27
1.6893e-26
2.26848e-26
3.30657e-26
1.66653e-26
-1.3594e-26
-4.09901e-26
-9.04783e-26
-7.13051e-26
-4.21774e-26
3.15877e-26
1.54642e-25
1.62753e-25
1.92015e-25
5.4329e-26
-1.45582e-25
-2.41544e-25
-4.15693e-25
-2.36506e-25
-3.16252e-26
2.19172e-25
5.89214e-25
4.55174e-25
3.83053e-25
-3.70658e-26
-5.43984e-25
-5.80031e-25
-7.54234e-25
-2.5456e-25
2.23646e-25
5.06866e-25
9.15311e-25
5.06877e-25
2.23662e-25
-2.54546e-25
-7.54229e-25
-5.80037e-25
-5.43996e-25
-3.70798e-26
3.83044e-25
4.55173e-25
5.89218e-25
2.1918e-25
-3.16195e-26
-2.36504e-25
-4.15695e-25
-2.4155e-25
-1.45587e-25
5.43253e-26
1.92014e-25
1.62753e-25
1.54642e-25
3.1588e-26
-4.21777e-26
-7.13058e-26
-9.04791e-26
-4.09911e-26
-1.35948e-26
1.66643e-26
3.30647e-26
2.26838e-26
1.68921e-26
1.7641e-27
-5.9153e-27
-7.19767e-27
-7.52736e-27
-3.02112e-27
-7.45971e-28
1.07172e-27
1.83317e-27
1.19055e-27
8.25081e-28
1.80807e-28
-1.07245e-28
-1.68046e-28
-1.77446e-28
-7.19555e-29
-2.07263e-29
2.18206e-29
3.87123e-29
3.57956e-29
3.30572e-29
2.62126e-29
2.26382e-29
2.02405e-29
1.88342e-29
1.8167e-29
1.75656e-29
1.70987e-29
1.66083e-29
1.61169e-29
1.56158e-29
1.51244e-29
1.46521e-29
1.42127e-29
1.37988e-29
1.33867e-29
1.29555e-29
1.24908e-29
1.20018e-29
1.15239e-29
1.10841e-29
1.0709e-29
1.0392e-29
1.01034e-29
9.8175e-30
9.49836e-30
9.14809e-30
8.77434e-30
8.39752e-30
8.04915e-30
7.73519e-30
7.4693e-30
7.24011e-30
7.02776e-30
6.81516e-30
6.57525e-30
6.30331e-30
6.00925e-30
5.71559e-30
5.45658e-30
5.25466e-30
5.10355e-30
4.98461e-30
4.85461e-30
4.67852e-30
4.45731e-30
4.19767e-30
3.95079e-30
3.75283e-30
3.61426e-30
3.53971e-30
3.47723e-30
3.396e-30
3.26861e-30
3.08198e-30
2.8756e-30
2.67499e-30
2.52171e-30
2.4374e-30
2.40385e-30
2.39691e-30
2.3672e-30
2.27784e-30
2.12344e-30
1.9241e-30
1.73001e-30
1.59619e-30
1.54727e-30
1.5751e-30
1.63261e-30
1.65461e-30
1.60182e-30
1.4648e-30
1.28204e-30
1.11117e-30
1.00004e-30
9.69522e-31
9.96795e-31
1.04434e-30
1.06401e-30
1.03598e-30
9.60937e-31
8.57157e-31
7.60766e-31
6.83189e-31
6.43839e-31
6.32452e-31
6.34148e-31
6.40517e-31
6.22397e-31
5.90235e-31
5.37405e-31
4.80544e-31
4.4538e-31
4.22202e-31
4.2867e-31
4.32858e-31
4.18631e-31
3.87377e-31
3.23307e-31
2.69872e-31
2.36099e-31
2.3387e-31
2.70039e-31
3.00602e-31
3.18366e-31
3.01155e-31
2.50107e-31
1.98789e-31
1.51805e-31
1.3019e-31
1.25863e-31
1.18713e-31
1.13105e-31
1.02285e-31
1.07029e-31
1.40676e-31
1.86523e-31
2.29999e-31
2.26643e-31
1.57857e-31
4.47463e-32
-8.05595e-32
-1.44184e-31
-1.12808e-31
4.88667e-33
1.70875e-31
2.88688e-31
3.07953e-31
2.08802e-31
2.20069e-32
-1.51178e-31
-2.4787e-31
-2.13558e-31
-6.30065e-32
1.17762e-31
2.61275e-31
2.8461e-31
1.8446e-31
1.73304e-32
-1.53038e-31
-2.30952e-31
-1.99087e-31
-7.98178e-32
7.3938e-32
1.73108e-31
1.9429e-31
1.30156e-31
1.79443e-32
-7.76947e-32
-1.36901e-31
-1.34283e-31
-9.09227e-32
-3.63346e-32
2.02571e-32
5.18692e-32
6.85872e-32
6.69923e-32
4.56468e-32
1.7295e-32
-2.45383e-32
-6.09258e-32
-8.73116e-32
-9.69217e-32
-8.36482e-32
-5.77854e-32
-1.88079e-32
1.82482e-32
5.03458e-32
6.54e-32
5.72031e-32
2.93494e-32
-2.12351e-32
-6.74399e-32
-1.04632e-31
-1.14503e-31
-9.07926e-32
-5.53171e-32
-4.11442e-33
3.11954e-32
4.86734e-32
5.08054e-32
2.50251e-32
-2.60753e-33
-4.03031e-32
-7.37671e-32
-8.83129e-32
-9.1578e-32
-6.57857e-32
-2.88152e-32
1.03338e-32
4.18784e-32
4.50848e-32
2.92787e-32
-5.94179e-33
-4.46861e-32
-7.12382e-32
-8.2335e-32
-7.04122e-32
-4.43325e-32
-1.18077e-32
1.60544e-32
2.94607e-32
2.37711e-32
3.64422e-33
-2.10408e-32
-3.9948e-32
-4.00097e-32
-3.12845e-32
-1.73352e-32
-1.27533e-32
-2.55637e-32
-3.64317e-32
-4.31062e-32
-2.27651e-32
1.6831e-32
5.03947e-32
6.47474e-32
3.0374e-32
-3.07864e-32
-9.27982e-32
-1.22683e-31
-9.02712e-32
-1.9169e-32
6.58668e-32
1.14536e-31
1.00579e-31
3.65957e-32
-5.2629e-32
-1.10994e-31
-1.1612e-31
-6.54982e-32
1.49884e-32
7.49021e-32
9.30299e-32
5.58883e-32
-9.94412e-33
-6.45487e-32
-8.488e-32
-5.25478e-32
6.96811e-33
6.26785e-32
8.75738e-32
6.05893e-32
2.8037e-33
-6.11527e-32
-1.00343e-31
-8.90539e-32
-3.93866e-32
3.22473e-32
9.50627e-32
1.17725e-31
1.00222e-31
4.44115e-32
-2.7024e-32
-8.29489e-32
-1.13787e-31
-1.02487e-31
-5.63161e-32
6.53138e-33
7.59945e-32
1.21447e-31
1.33828e-31
1.06754e-31
3.99104e-32
-3.80296e-32
-1.08233e-31
-1.39058e-31
-1.13418e-31
-4.18589e-32
5.6988e-32
1.38043e-31
1.68269e-31
1.34236e-31
4.58194e-32
-5.39005e-32
-1.22257e-31
-1.28026e-31
-6.76638e-32
2.66732e-32
1.1129e-31
1.47288e-31
1.16916e-31
4.11916e-32
-4.33409e-32
-9.59143e-32
-8.69678e-32
-2.96623e-32
5.28404e-32
1.18201e-31
1.30397e-31
9.62619e-32
2.2337e-32
-4.60792e-32
-7.45335e-32
-6.18254e-32
5.3264e-34
6.55793e-32
1.08517e-31
1.17119e-31
7.47558e-32
2.36468e-32
-2.46182e-32
-4.69649e-32
-2.73497e-32
5.79133e-33
5.0913e-32
8.1691e-32
8.73018e-32
7.92009e-32
5.4822e-32
3.28348e-32
1.97724e-32
1.25516e-32
1.45968e-32
1.70446e-32
1.52419e-32
1.64179e-32
1.65322e-32
2.63394e-32
4.91684e-32
7.30905e-32
1.02252e-31
1.1082e-31
9.68528e-32
6.17321e-32
3.66453e-33
-3.99871e-32
-6.58021e-32
-5.09459e-32
2.55035e-33
6.67023e-32
1.30008e-31
1.53567e-31
1.38381e-31
8.65758e-32
2.29321e-32
-2.6083e-32
-4.66045e-32
-2.53245e-32
5.38358e-33
5.41743e-32
7.45862e-32
7.52452e-32
6.82501e-32
2.34539e-32
1.40766e-32
-1.83821e-32
-2.45746e-32
-4.63989e-33
)
;

boundaryField
{
    left
    {
        type            calculated;
        value           uniform 0;
    }
    right
    {
        type            calculated;
        value           uniform 0;
    }
    empty
    {
        type            empty;
        value           nonuniform List<scalar> 0();
    }
}


// ************************************************************************* //
