/*--------------------------------*- C++ -*----------------------------------*\
| =========                 |                                                 |
| \\      /  F ield         | OpenFOAM: The Open Source CFD Toolbox           |
|  \\    /   O peration     | Version:  2106                                  |
|   \\  /    A nd           | Website:  www.openfoam.com                      |
|    \\/     M anipulation  |                                                 |
\*---------------------------------------------------------------------------*/
FoamFile
{
    version     2.0;
    format      ascii;
    arch        "LSB;label=32;scalar=64";
    class       volScalarField;
    location    "0.34";
    object      p;
}
// * * * * * * * * * * * * * * * * * * * * * * * * * * * * * * * * * * * * * //

dimensions      [0 2 -2 0 0 0 0];

internalField   nonuniform List<scalar> 
9600
(
2.25884094138
-0.639169893712
-1.5434005649
-1.92901081076
-2.14834251584
-2.28828546027
-2.3921907613
-2.47974067778
-2.55924035247
-2.63463075961
-2.7080047098
-2.78051336439
-2.85278636538
-2.92515464337
-2.99777479645
-3.07070267797
-3.14393838511
-3.21745348926
-3.29120777117
-3.36515836202
-3.43926443578
-3.51349159427
-3.58780936267
-3.6621935158
-3.73662472222
-3.8110878862
-3.88557149827
-3.96006662264
-4.03456645649
-4.10906581313
-4.18356052213
-4.25804731079
-4.33252341303
-4.40698646359
-4.48143446168
-4.55586535819
-4.63027722639
-4.70466827853
-4.77903650561
-4.85337978298
-4.92769588667
-5.00198241204
-5.07623674198
-5.15045587088
-5.22463681184
-5.29877633137
-5.37287077156
-5.44691638097
-5.52090922292
-5.59484485058
-5.66871851006
-5.74252522634
-5.81625957454
-5.88991562239
-5.96348708562
-6.03696733691
-6.11034921911
-6.18362498503
-6.25678652554
-6.32982521946
-6.40273176285
-6.47549631094
-6.5481085052
-6.62055721544
-6.69283047153
-6.76491556823
-6.83679909492
-6.90846676626
-6.9799033647
-7.05109289023
-7.12201844602
-7.1926620785
-7.26300489165
-7.33302694551
-7.40270709237
-7.47202300429
-7.54095121434
-7.6094670146
-7.6775443135
-7.74515573259
-7.81227270618
-7.87886529433
-7.94490196825
-8.01034953177
-8.07517321785
-8.13933675876
-8.20280227485
-8.26553025987
-8.32747955866
-8.38860719817
-8.44886830886
-8.5082161979
-8.56660237912
-8.62397643985
-8.68028609811
-8.73547732131
-8.78949408923
-8.84227822801
-8.89376951847
-8.94390585209
-8.9926231127
-9.03985508655
-9.08553368643
-9.12958905838
-9.17194927236
-9.21254037023
-9.25128648519
-9.28810973788
-9.32293025022
-9.3556665078
-9.38623529326
-9.41455164213
-9.44052878308
-9.46407827216
-9.48511034781
-9.50353371882
-9.51925563039
-9.5321823011
-9.54221874655
-9.54926878202
-9.55323538653
-9.5540206043
-9.55152544515
-9.54565006926
-9.53629446952
-9.52335888844
-9.50674118671
-9.48633996865
-9.46205298299
-9.4337780543
-9.40141303581
-9.36485520144
-9.32400126474
-9.2787474315
-9.2289888532
-9.17461942447
-9.11553137553
-9.0516146009
-8.98275592797
-8.90883799388
-8.8297379863
-8.74532585596
-8.65546220243
-8.55999519751
-8.45875639941
-8.35155628068
-8.23817736371
-8.11836406511
-7.99180993018
-7.85813969916
-7.71688132837
-7.56742157028
-7.40893301794
-7.24024885104
-7.05964798483
-6.86453940246
-6.65097814054
-6.4131402283
-6.15167105238
-5.9276602049
0.347300437148
-0.835054923227
-1.44372885425
-1.79775269981
-2.04036936817
-2.21093278241
-2.33900477765
-2.44350766575
-2.53458355077
-2.61786231545
-2.69663530264
-2.77285231722
-2.84767275229
-2.92178486953
-2.99559070266
-3.06931691459
-3.14308336193
-3.21694572895
-3.29092267323
-3.36501245399
-3.43920337443
-3.51347898499
-3.58782260405
-3.66221887592
-3.73665413904
-3.81111684257
-3.88559777829
-3.96008943844
-4.03458574085
-4.1090818867
-4.18357386736
-4.25805847907
-4.33253295406
-4.4069947941
-4.48144196569
-4.55587241487
-4.63028410783
-4.70467520867
-4.77904371896
-4.85338746673
-4.92770415199
-5.00199136718
-5.07624644992
-5.15046641221
-5.22464818396
-5.29878863267
-5.37288412146
-5.44693080336
-5.52092479349
-5.59486171873
-5.6687367702
-5.74254493669
-5.81628084306
-5.88993860017
-5.96351187297
-6.03699402344
-6.11037796021
-6.18365594881
-6.2568198055
-6.3298609471
-6.4027701427
-6.47553754877
-6.54815276619
-6.62060468162
-6.69288135569
-6.7649700617
-6.8368573859
-6.90852911015
-6.97997001271
-7.05116404027
-7.1220943639
-7.19274310078
-7.26309128292
-7.33311893516
-7.4028049873
-7.47212716491
-7.54106195658
-7.60958463022
-7.67766915407
-7.7452881927
-7.81241318483
-7.8790141952
-7.94505968869
-8.01051643561
-8.07534965614
-8.13952316293
-8.2029991532
-8.26573808491
-8.32769876517
-8.38883827241
-8.44911175862
-8.50847245212
-8.56687185352
-8.62425965299
-8.68058358631
-8.73578956959
-8.78982160773
-8.8426215934
-8.89412929636
-8.94428252321
-8.99301721164
-9.04026720825
-9.08596436586
-9.13003882542
-9.17241870439
-9.21302994623
-9.25179664835
-9.28864100804
-9.32348316334
-9.3562415174
-9.38683273293
-9.41517178839
-9.44117202573
-9.46474496837
-9.48580074642
-9.50424821137
-9.51999465849
-9.53294619037
-9.54300788495
-9.55008365904
-9.5540764709
-9.55488846845
-9.55242075046
-9.54657336599
-9.53724591842
-9.52433718575
-9.50774683984
-9.48737380805
-9.46311686331
-9.43487394949
-9.40254333642
-9.36602327543
-9.32521146656
-9.28000538554
-9.23030162425
-9.17599567136
-9.11698184564
-9.0531527486
-8.9843985519
-8.91060609079
-8.83165808195
-8.74743141751
-8.65779514185
-8.56260823387
-8.46171617427
-8.354947449
-8.24210874786
-8.12297726082
-7.99729103472
-7.86473766737
-7.72493848273
-7.57742566012
-7.42161230092
-7.25675703751
-7.08193313681
-6.89607843749
-6.69820054597
-6.48717260473
-6.2629594206
-6.04673278056
-0.628541888227
-1.1099101704
-1.50116909597
-1.79278478776
-2.01435841981
-2.18229443445
-2.31439643137
-2.42418526972
-2.52004409869
-2.60718897537
-2.6889312166
-2.76736562647
-2.84381260953
-2.91910187602
-2.9937495994
-3.06807113839
-3.14225369244
-3.21640336056
-3.29057601301
-3.36479713803
-3.43907448678
-3.51340600652
-3.58778483963
-3.6622025355
-3.7366503149
-3.81111987322
-3.88560414071
-3.96009709109
-4.03459354052
-4.1090892562
-4.18358057512
-4.25806446035
-4.33253830147
-4.40699961194
-4.48144633511
-4.55587652129
-4.63028810273
-4.70467915956
-4.77904769462
-4.85339154242
-4.92770837746
-5.00199570881
-5.07625097628
-5.15047124338
-5.22465332941
-5.29879409415
-5.3728900426
-5.44693728434
-5.52093183706
-5.59486937324
-5.66874512139
-5.74255397228
-5.81629054277
-5.88994902968
-5.96352311749
-6.03700610566
-6.11039092822
-6.18366990373
-6.25683482046
-6.32987706477
-6.4027874701
-6.47555621273
-6.54817283483
-6.62062619492
-6.69290439351
-6.76499473233
-6.83688375803
-6.90855727429
-6.98000010423
-7.05119616533
-7.12212862306
-7.19277965519
-7.26313027697
-7.3331604458
-7.40284910813
-7.47217406014
-7.54111178765
-7.60963752902
-7.67772530169
-7.74534781671
-7.81247646589
-7.87908123853
-7.94513060048
-8.01059139263
-8.07542886564
-8.13960683323
-8.20308752142
-8.26583138277
-8.32779716973
-8.38894194591
-8.4492209032
-8.50858725768
-8.56699246961
-8.6243862868
-8.68071650607
-8.73592898728
-8.78996766622
-8.84277450041
-8.89428932759
-8.94444987437
-8.99319195701
-9.04044954083
-9.08615451384
-9.13023694154
-9.1726249516
-9.21324448945
-9.25201956109
-9.28887241584
-9.3237233533
-9.35649081995
-9.38709160639
-9.41544073138
-9.44145147266
-9.46503532395
-9.48610233565
-9.50456144892
-9.52032005505
-9.53328422402
-9.54335908599
-9.55044864442
-9.55445586714
-9.55528290353
-9.55283113298
-9.54700097193
-9.53769234477
-9.5248052715
-9.50823884233
-9.48789204508
-9.46366397898
-9.43545308492
-9.403158038
-9.36667778566
-9.32591098568
-9.28075613567
-9.23111123949
-9.17687364431
-9.11793993422
-9.05420544166
-8.98556367279
-8.91190563662
-8.83311941777
-8.74908873154
-8.65969101086
-8.56479609772
-8.46426367928
-8.35794016554
-8.24565555763
-8.12721861157
-8.00241054245
-7.87097849723
-7.73262830178
-7.5870169654
-7.43374720648
-7.27237249232
-7.10242853837
-6.92354407552
-6.73571680458
-6.5394264735
-6.33570802035
-6.13283843834
-1.18000276755
-1.36634852891
-1.60879614903
-1.83126395608
-2.01845459673
-2.17248244313
-2.30092003795
-2.41121083561
-2.50900550811
-2.59836568608
-2.68213680922
-2.76226345125
-2.84005310732
-2.91637499266
-2.99179954316
-3.06669537542
-3.14129622114
-3.21574647953
-3.29013229849
-3.36450258083
-3.43888277793
-3.51328415635
-3.58771007786
-3.66215842995
-3.73662589038
-3.81110780381
-3.88559953748
-3.96009680332
-4.03459558489
-4.1090924329
-4.18358418474
-4.25806805976
-4.33254170487
-4.4070027825
-4.48144924867
-4.55587924195
-4.63029074009
-4.70468176517
-4.77905029508
-4.85339420444
-4.92771118295
-5.00199866312
-5.07625405307
-5.1504745086
-5.22465681403
-5.29879775794
-5.37289392905
-5.44694146336
-5.52093628948
-5.59487413463
-5.66875025641
-5.74255951744
-5.81629646325
-5.88995537012
-5.96352996203
-6.03701347806
-6.11039881095
-6.18367840383
-6.25684402892
-6.32988698733
-6.40279816264
-6.4755677797
-6.54818530189
-6.62063952683
-6.69291862605
-6.76500994305
-6.83689997433
-6.9085745152
-6.98001848188
-7.05121578853
-7.12214955524
-7.19280196274
-7.26315403238
-7.33318569616
-7.40287589803
-7.4722024828
-7.54114197902
-7.60966961081
-7.67775937962
-7.74538400205
-7.81251484762
-7.87912184896
-7.94517346876
-8.01063664681
-8.07547669214
-8.13965737303
-8.20314089812
-8.26588774772
-8.32785665482
-8.38900463424
-8.44928688755
-8.50865666573
-8.56706541411
-8.62446289396
-8.68079696408
-8.73601348616
-8.79005634685
-8.84286750421
-8.89438689978
-8.94455229297
-8.99329947595
-9.04056241319
-9.08627301834
-9.1303612277
-9.17275516781
-9.21338084929
-9.25216225677
-9.28902164354
-9.32387938413
-9.35665394315
-9.38726191377
-9.41561815249
-9.44163609395
-9.46522740844
-9.48630216576
-9.50476930259
-9.52053630649
-9.53350928168
-9.54359336594
-9.55069270022
-9.55471032148
-9.55554830471
-9.55310825361
-9.54729082984
-9.53799605216
-9.52512402613
-9.50857444675
-9.48824664699
-9.46404027173
-9.43585462659
-9.40358906956
-9.3671434925
-9.32641760062
-9.28131104411
-9.23172345305
-9.17755424025
-9.11870250308
-9.05506663996
-8.98654404749
-8.91303052507
-8.8344199315
-8.75060315836
-8.66146659136
-8.56689154939
-8.46675269199
-8.36091545242
-8.24923390399
-8.13154863593
-8.00768396626
-7.87744488195
-7.74061599031
-7.59696384033
-7.44624403524
-7.28822148633
-7.12271228336
-6.94966768014
-6.76933462699
-6.58231570299
-6.38945379981
-6.19384617093
-1.5173484294
-1.56911102542
-1.71300614606
-1.87729934071
-2.03163217904
-2.16968991497
-2.29184371442
-2.40063227543
-2.49907639559
-2.58990660923
-2.67531427715
-2.75695224944
-2.83602215586
-2.91337589645
-2.9896052614
-3.0651138649
-3.14017239989
-3.21495902839
-3.28958845729
-3.36413272413
-3.43863550297
-3.51312212877
-3.58760634
-3.66209379037
-3.73658711606
-3.81108586221
-3.88558825227
-3.96009206147
-4.03459471712
-4.10909372904
-4.18358659031
-4.25807089222
-4.33254459684
-4.40700561972
-4.48145196376
-4.55588183131
-4.63029327744
-4.70468430303
-4.77905286282
-4.85339682545
-4.92771392677
-5.00200156457
-5.07625708055
-5.15047770977
-5.22466027271
-5.29880147783
-5.37289796082
-5.44694592953
-5.52094123935
-5.59487953769
-5.66875611934
-5.74256584249
-5.81630325703
-5.8899626179
-5.96353771974
-6.03702179782
-6.11040773867
-6.18368798782
-6.25685435036
-6.32989813818
-6.40281020907
-6.47558076095
-6.54819925789
-6.62065447798
-6.69293457568
-6.76502696302
-6.83691816868
-6.90859393673
-6.98003919407
-7.05123793087
-7.12217323516
-7.19282722517
-7.26318094591
-7.33321436563
-7.40290640858
-7.47223492507
-7.54117648413
-7.60970629434
-7.67779831371
-7.74542526057
-7.81255853142
-7.87916806601
-7.94522232398
-8.01068828634
-8.07553129813
-8.13971507728
-8.20320178866
-8.26595195823
-8.32792436108
-8.38907596114
-8.4493619282
-8.50873556185
-8.56714828914
-8.6245498285
-8.68088806595
-8.73610888988
-8.79015619387
-8.84297189868
-8.89449593895
-8.94466610455
-8.99341814328
-9.04068599811
-9.08640162629
-9.13049492077
-9.17289394981
-9.21352480013
-9.25231152543
-9.28917635521
-9.32403970013
-9.35682008874
-9.38743419285
-9.41579679695
-9.44182125204
-9.4654193787
-9.48650130988
-9.50497592291
-9.52075078021
-9.53373202105
-9.5438247827
-9.55093334516
-9.55496092027
-9.55580964575
-9.55338110211
-9.54757638576
-9.53829574527
-9.52543952643
-9.50890791227
-9.48860058904
-9.46441760667
-9.43625902906
-9.40402507435
-9.36761659131
-9.32693446565
-9.28187972588
-9.23235375569
-9.17825819281
-9.11949479346
-9.05596516913
-8.987570822
-8.91421266018
-8.83579059726
-8.75220307236
-8.66334591402
-8.56911207726
-8.46939112757
-8.36406751984
-8.25301913378
-8.13611700146
-8.01322519217
-7.88420070096
-7.74889592032
-7.60716495961
-7.45887588193
-7.30393259685
-7.14230820339
-6.97409311876
-6.79955627019
-6.61910696986
-6.433068405
-6.24209559873
-1.72142276735
-1.71644381588
-1.80041897614
-1.92120817848
-2.04785112675
-2.17053080074
-2.28542763602
-2.39162400168
-2.48990712139
-2.58169635439
-2.66845731266
-2.75147248692
-2.83177653193
-2.9101631482
-2.9872204606
-3.06337290981
-3.13892063507
-3.21407197985
-3.28896888876
-3.36370640583
-3.43834681787
-3.51293002515
-3.58748078956
-3.66201418598
-3.73653804344
-3.8110569196
-3.88557229842
-3.96008427305
-4.0345919002
-4.10909376969
-4.18358817584
-4.2580731972
-4.33254712938
-4.40700818917
-4.48145448454
-4.55588426084
-4.63029563869
-4.70468665741
-4.7790552613
-4.85339926925
-4.92771642962
-5.00200417627
-5.07625978317
-5.15048050821
-5.22466324963
-5.2988046619
-5.37290134473
-5.44694955758
-5.52094513982
-5.59488366168
-5.66876043366
-5.74257041465
-5.8163081751
-5.8899679011
-5.96354339965
-6.0370279593
-6.11041440544
-6.18369517047
-6.25686213876
-6.32990661845
-6.40281939951
-6.47559067504
-6.54820993184
-6.62066591258
-6.69294673929
-6.76503988432
-6.83693191747
-6.90860855036
-6.98005473984
-7.05125453503
-7.12219098121
-7.192846126
-7.26320101744
-7.3332356725
-7.40292903324
-7.47225895269
-7.54120202958
-7.60973347371
-7.67782720067
-7.74545589292
-7.8125909533
-7.87920235342
-7.94525855621
-8.01072654561
-8.07557169316
-8.13975772044
-8.2032467944
-8.26599946829
-8.32797451381
-8.38912883965
-8.44941759032
-8.50879412
-8.56720989888
-8.6246146026
-8.68095609043
-8.73618030931
-8.79023122609
-8.84305072745
-8.89457869099
-8.9447529669
-8.99350930666
-9.04078159854
-9.08650182761
-9.13059986333
-9.17300367761
-9.21363941168
-9.25243120807
-9.2893013083
-9.32417006822
-9.35695601164
-9.38757589551
-9.41594451888
-9.44197514391
-9.46557970532
-9.48666846344
-9.50515025125
-9.52093264206
-9.53392185453
-9.544023064
-9.55114060255
-9.55517793479
-9.55603734196
-9.55362040222
-9.54782847078
-9.5385622353
-9.52572224207
-9.50920917877
-9.48892323444
-9.46476484065
-9.436634843
-9.40443427505
-9.36806486241
-9.32742874685
-9.28242844742
-9.23296716835
-9.17894883067
-9.12027789303
-9.0568591476
-8.98859808721
-8.91540062943
-8.83717265935
-8.75382001418
-8.66524771027
-8.57135985698
-8.47205989829
-8.36724981908
-8.25682943477
-8.1406967842
-8.01874978885
-7.89088824096
-7.75701735188
-7.61705507034
-7.47094397049
-7.31866883577
-7.16027736682
-6.99590041692
-6.8257608829
-6.65009861769
-6.46895433288
-6.28217494782
-1.84455162679
-1.81909510027
-1.86845424049
-1.95861380962
-2.06353854041
-2.17286075944
-2.28069755974
-2.38392135184
-2.48159527612
-2.57398578626
-2.66185722603
-2.74610119851
-2.82755646413
-2.90693429235
-2.98480201566
-3.06159394906
-3.13763303989
-3.21315400878
-3.28832401052
-3.36326011095
-3.43804278329
-3.51272642164
-3.58734715437
-3.66192852669
-3.73648459384
-3.81102489133
-3.88555420521
-3.9600750131
-4.03458805851
-4.10909306344
-4.18358918792
-4.25807506457
-4.33254930984
-4.40701044449
-4.48145672999
-4.55588643219
-4.630297738
-4.70468873445
-4.7790573744
-4.8534014095
-4.92771858603
-5.00200640922
-5.07626209801
-5.15048288297
-5.22466574793
-5.29880735003
-5.37290423537
-5.44695266978
-5.52094851403
-5.59488729242
-5.66876431412
-5.74257459439
-5.81631267167
-5.88997269855
-5.96354850718
-6.0370334405
-6.11042032206
-6.18370155055
-6.2568690337
-6.32991410688
-6.40282752562
-6.47559943751
-6.54821933332
-6.62067597203
-6.69295745184
-6.76505125922
-6.83694402421
-6.90862146154
-6.98006851035
-7.05126923268
-7.12220666539
-7.19286281586
-7.26321873074
-7.33325449359
-7.40294908947
-7.47228033576
-7.54122479689
-7.60975768855
-7.67785292991
-7.74548317969
-7.81261983368
-7.87923289307
-7.94529082308
-8.01076059816
-8.07560763252
-8.13979567223
-8.20328685487
-8.2660417086
-8.32801900925
-8.38917566021
-8.44946678552
-8.50884576531
-8.56726410215
-8.62467144667
-8.6810156288
-8.7362426205
-8.79029641731
-8.84311893438
-8.89464998511
-8.94482743969
-8.99358709051
-9.04086277207
-9.08658647776
-9.13068810966
-9.17309558386
-9.21373505761
-9.25253073456
-9.28940490646
-9.32427791699
-9.35706824983
-9.38769270958
-9.41606619092
-9.44210193438
-9.46571190469
-9.48680644008
-9.50529434766
-9.52108321054
-9.53407938393
-9.54418810103
-9.5513136746
-9.55535974273
-9.55622886548
-9.55382265453
-9.54804269066
-9.53879005852
-9.52596560907
-9.50947047962
-9.48920535499
-9.46507115027
-9.43696946108
-9.40480215826
-9.36847183904
-9.32788179991
-9.28293606915
-9.2335397563
-9.17959900335
-9.12102086358
-9.05771322604
-8.98958538346
-8.91654803889
-8.83851279895
-8.75539235135
-8.66710027855
-8.57355110432
-8.4746606581
-8.37034625348
-8.26052680792
-8.14512334471
-8.02406160584
-7.89727480021
-7.7647074101
-7.62632205102
-7.4821084459
-7.33209653745
-7.17636675629
-7.01505531876
-6.84834442864
-6.67639931682
-6.49922424558
-6.3166347983
-1.91859344279
-1.88754371606
-1.91747405589
-1.98724630883
-2.07641444937
-2.17529119049
-2.27717030645
-2.3776426788
-2.47456937848
-2.56731572998
-2.65605287798
-2.74131924895
-2.82376425831
-2.90401183493
-2.98260060901
-3.05996720575
-3.13645115795
-3.2123086707
-3.28772843041
-3.36284678996
-3.43776043696
-3.51253679674
-3.5872222901
-3.66184837106
-3.73643433633
-3.81099459862
-3.88553694179
-3.9600660223
-4.03458414999
-4.10909210013
-4.18358983134
-4.25807653435
-4.33255111185
-4.40701233023
-4.481458617
-4.5558882832
-4.63029954742
-4.70469051467
-4.77905915828
-4.85340320629
-4.9277203703
-5.00200822646
-5.0762639932
-5.15048483215
-5.22466778131
-5.2988095439
-5.37290660515
-5.44695519776
-5.52095119109
-5.59489013197
-5.66876731258
-5.74257776031
-5.81631606614
-5.8899763631
-5.96355243578
-6.03703768404
-6.11042494533
-6.18370656399
-6.25687444801
-6.32991998442
-6.40283392914
-6.47560636609
-6.54822675611
-6.62068389635
-6.69296588232
-6.76506018696
-6.83695349199
-6.90863153835
-6.98007923709
-7.0512806444
-7.12221880438
-7.19287571704
-7.26323242687
-7.3332690504
-7.40296460855
-7.47229689287
-7.54124242502
-7.60977641937
-7.67787281509
-7.74550426171
-7.81264212122
-7.87925641452
-7.94531564008
-8.01078676567
-8.07563522689
-8.13982481759
-8.20331765176
-8.26607418736
-8.3280532045
-8.38921165358
-8.4495046513
-8.5088855636
-8.56730592374
-8.62471537802
-8.68106173723
-8.73629096851
-8.79034709637
-8.84317201661
-8.89470552979
-8.94488553644
-8.99364788841
-9.04092637012
-9.08665291866
-9.13075746595
-9.17316792456
-9.21381041635
-9.25260917984
-9.28948655243
-9.32436291697
-9.35715674223
-9.38778483423
-9.41616222116
-9.44220218335
-9.46581665755
-9.48691603142
-9.50540910169
-9.52120344719
-9.53420555584
-9.54432075578
-9.55145340195
-9.55550717787
-9.55638492872
-9.55398845925
-9.54821949693
-9.53897958932
-9.52616988046
-9.50969182827
-9.48944670285
-9.46533589313
-9.43726165747
-9.40512677806
-9.36883472596
-9.32828993497
-9.28339798533
-9.23406577271
-9.18020142836
-9.12171449899
-9.05851598185
-8.99051880625
-8.91763810348
-8.83979072099
-8.75689558978
-8.66887414723
-8.57565033906
-8.47715101686
-8.37330678457
-8.26405271365
-8.1493291226
-8.0290842922
-7.90327732607
-7.77188211228
-7.63489314378
-7.49233216471
-7.34425724661
-7.19076937451
-7.03201167143
-6.86815948921
-6.69938393706
-6.52578270078
-6.34739098849
-1.96082629535
-1.92926251666
-1.94890732534
-2.00635308373
-2.08536621577
-2.17714482361
-2.27476238793
-2.37314998077
-2.46943159932
-2.56236551953
-2.65169801092
-2.73770192071
-2.82087769746
-2.90177668123
-2.98091073474
-3.05871488543
-3.13553922858
-3.21165519041
-3.28726728876
-3.36252630067
-3.43754120559
-3.51238935381
-3.58712487437
-3.66178465295
-3.7363949853
-3.81097095684
-3.88552344195
-3.96005895606
-4.03458103471
-4.10909126646
-4.18359022545
-4.25807758629
-4.33255245958
-4.4070137536
-4.48146003971
-4.55588970036
-4.63030095891
-4.70469189778
-4.77906052644
-4.85340459031
-4.92772174096
-5.00200960113
-5.07626543012
-5.15048632027
-5.22466933232
-5.29881122727
-5.37290844134
-5.44695713714
-5.52095320643
-5.59489225465
-5.66876958133
-5.74258018501
-5.81631866907
-5.8899791602
-5.96355544045
-6.03704092226
-6.11042844865
-6.18371033567
-6.25687849767
-6.32992436729
-6.40283872056
-6.47561157862
-6.54823234644
-6.62068985432
-6.69297223436
-6.76506692749
-6.83696062368
-6.90863910358
-6.98008726935
-7.05128915162
-7.1222278084
-7.1928852791
-7.26324261365
-7.33327991852
-7.40297622097
-7.4723092977
-7.54125564381
-7.60979046461
-7.67788770357
-7.74552000786
-7.81265871899
-7.87927387774
-7.94533404711
-8.01080620137
-8.07565573891
-8.13984645149
-8.20334045864
-8.2660981837
-8.32807839742
-8.38923811616
-8.44953247389
-8.50891480354
-8.5673366317
-8.62474760338
-8.68109552799
-8.73632634171
-8.79038407198
-8.84321064838
-8.89474589458
-8.94492771376
-8.99369200121
-9.04097253514
-9.08670117849
-9.13080786106
-9.17322050991
-9.21386524035
-9.25266626088
-9.28954592164
-9.32442471887
-9.35722115254
-9.38785198994
-9.41623237069
-9.44227564975
-9.46589371008
-9.48699696109
-9.5054942119
-9.52129306211
-9.53430005886
-9.54442072323
-9.55155945653
-9.55561996337
-9.55650528743
-9.5541175008
-9.54835857205
-9.53913044051
-9.52633455351
-9.50987268062
-9.48964661705
-9.46555825816
-9.43751047965
-9.40540687431
-9.36915187792
-9.32865116726
-9.28381180148
-9.23454228213
-9.1807525846
-9.12235465058
-9.0592625143
-8.99139259426
-8.91866411454
-8.84099876755
-8.75832121563
-8.67055987671
-8.57764714352
-8.47951988571
-8.37612028746
-8.26739717001
-8.15330724474
-8.03381743711
-7.90890790007
-7.77857566601
-7.64284013976
-7.50174859078
-7.35538289472
-7.20386523026
-7.04735929984
-6.88606630618
-6.72021248731
-6.55003045841
-6.37579702139
-1.98007469147
-1.94897857836
-1.96420226543
-2.01586994055
-2.08992721069
-2.17812850934
-2.27353249681
-2.37080112888
-2.46671312428
-2.55972389149
-2.6493591857
-2.73574972379
-2.81931410614
-2.90056255477
-2.97999084477
-3.05803206382
-3.13504136274
-3.21129805808
-3.2870150564
-3.36235085717
-3.43742110309
-3.51230854633
-3.58707161217
-3.6617506786
-3.73637357885
-3.81095806539
-3.88551613012
-3.96005515664
-4.03457937543
-4.10909084176
-4.18359044932
-4.25807816527
-4.33255323673
-4.4070146067
-4.48146091864
-4.55589059904
-4.63030187766
-4.70469280139
-4.77906139758
-4.85340547789
-4.92772265038
-5.00201050679
-5.076266357
-5.15048728814
-5.22467035499
-5.29881234521
-5.37290966112
-5.44695842576
-5.52095453962
-5.5948936609
-5.66877110024
-5.74258180708
-5.81632039497
-5.88998104397
-5.96355751672
-6.03704316557
-6.11043083379
-6.18371286074
-6.25688118736
-6.32992726897
-6.40284188569
-6.47561503024
-6.54823605542
-6.62069380802
-6.69297646381
-6.76507142708
-6.83696536145
-6.908644092
-6.98009254279
-7.05129472419
-7.12223368815
-7.19289150178
-7.26324923605
-7.33328699003
-7.40298378412
-7.47231738495
-7.5412642705
-7.60979962015
-7.6778973599
-7.74553015499
-7.81266937046
-7.87928507122
-7.94534585963
-8.01081870845
-8.07566895778
-8.13986036112
-8.20335505811
-8.26611348953
-8.32809443072
-8.3892549289
-8.44955014948
-8.50893340384
-8.56735614736
-8.62476802648
-8.6811168683
-8.73634859544
-8.79040724322
-8.84323480884
-8.89477113635
-8.94495409763
-8.99371959667
-9.04100142696
-9.08673138841
-9.13083939176
-9.1732533998
-9.21389950861
-9.25270193527
-9.28958303185
-9.32446335666
-9.35726147125
-9.38789415278
-9.41627661234
-9.44232225584
-9.46594292015
-9.48704900777
-9.50554941415
-9.52135174628
-9.53436258067
-9.54448759963
-9.55163139307
-9.55569761623
-9.55658947386
-9.55420937719
-9.54845948396
-9.53924211108
-9.52645908099
-9.5100123453
-9.48980420016
-9.46573718112
-9.43771473856
-9.40564126874
-9.36942218882
-9.32896431578
-9.2841760796
-9.23496762343
-9.18125082723
-9.12293988497
-9.05995164165
-8.99220583355
-8.91962554346
-8.84213706905
-8.75967044499
-8.67216045251
-8.57954726072
-8.48177691558
-8.37880198982
-8.27058343217
-8.1570921676
-8.03831148173
-7.91424005626
-7.78489511805
-7.65031843949
-7.51058053576
-7.36578851119
-7.21609109306
-7.06168433348
-6.90281508932
-6.73978309175
-6.57294971077
-6.40278068999
-1.98007466553
-1.94897855826
-1.96420220451
-2.01587000251
-2.08992724065
-2.17812849888
-2.27353252315
-2.37080114917
-2.46671310106
-2.5597238699
-2.64935919957
-2.73574975925
-2.81931416749
-2.9005626468
-2.97999094623
-3.0580321545
-3.1350414298
-3.21129810111
-3.28701508934
-3.36235086055
-3.43742108316
-3.51230853717
-3.58707162526
-3.66175075118
-3.73637372992
-3.81095828048
-3.88551638011
-3.96005537273
-4.03457954445
-4.10909098757
-4.18359055569
-4.25807826441
-4.33255338563
-4.40701481646
-4.48146118148
-4.55589090831
-4.63030223013
-4.7046931688
-4.77906174858
-4.85340585446
-4.92772306587
-5.00201090616
-5.07626675227
-5.15048773021
-5.22467085814
-5.29881291541
-5.3729102885
-5.44695908816
-5.52095521983
-5.59489438033
-5.66877190018
-5.74258267935
-5.81632132937
-5.88998208747
-5.96355867882
-6.03704438908
-6.11043204946
-6.18371407387
-6.25688245938
-6.32992865261
-6.40284340395
-6.47561670398
-6.54823788617
-6.62069578304
-6.69297858872
-6.76507368615
-6.83696770827
-6.90864651548
-6.98009507619
-7.05129739242
-7.12223648544
-7.19289443142
-7.26325233533
-7.33329029612
-7.40298731725
-7.47232115769
-7.54126828005
-7.60980384156
-7.67790174705
-7.74553469879
-7.8126741154
-7.87929006556
-7.94535114086
-8.01082429963
-8.07567484024
-8.13986648814
-8.20336139945
-8.26612006947
-8.32810127261
-8.38926205762
-8.44955762434
-8.50894125539
-8.56736434969
-8.62477653608
-8.68112567905
-8.73635769428
-8.79041660938
-8.84324448678
-8.89478122017
-8.94496465131
-8.99373065026
-9.04101300552
-9.08674350774
-9.13085203253
-9.17326655871
-9.21391319513
-9.25271619143
-9.28959787781
-9.32447884803
-9.35727776549
-9.3879114098
-9.41629499863
-9.44234200253
-9.46596422806
-9.48707207603
-9.50557454967
-9.52137930571
-9.53439291502
-9.54452118936
-9.55166891515
-9.55573981468
-9.5566372055
-9.5542638044
-9.54852199951
-9.53931441462
-9.52654319737
-9.51011050314
-9.48991908109
-9.46587214151
-9.43787384853
-9.40582942261
-9.3696451843
-9.32922900492
-9.28449061488
-9.23534183987
-9.1816965456
-9.12347112227
-9.0605851127
-8.99296139565
-8.92052667094
-8.84321176399
-8.76095202658
-8.67368831574
-8.58136803127
-8.48394576455
-8.38138404604
-8.27365521355
-8.16074332648
-8.04264694437
-7.91938183889
-7.79098456801
-7.65751850274
-7.51907827177
-7.37579809215
-7.22785842905
-7.07549364015
-6.91900176071
-6.75875357579
-6.59521158369
-6.4289647372
-1.96082614494
-1.92926247356
-1.94890718605
-2.00635327285
-2.08536631895
-2.17714481686
-2.27476245224
-2.37315002331
-2.46943153804
-2.56236547163
-2.65169806524
-2.73770203766
-2.82087787839
-2.90177695367
-2.9809110372
-3.05871515957
-3.13553943208
-3.2116553201
-3.28726737963
-3.36252629905
-3.43754113791
-3.51238932266
-3.58712491232
-3.66178486872
-3.73639543188
-3.81097158716
-3.88552418563
-3.96005962652
-4.03458156543
-4.10909170651
-4.18359055276
-4.25807790673
-4.33255291215
-4.40701436424
-4.48146080532
-4.55589059207
-4.63030196854
-4.7046929728
-4.77906159306
-4.85340573407
-4.92772298272
-5.00201081001
-5.07626663333
-5.15048763775
-5.22467081359
-5.29881289057
-5.37291025952
-5.44695906093
-5.5209552277
-5.59489442567
-5.66877197603
-5.74258279184
-5.8163214755
-5.88998227502
-5.96355890232
-6.0370445674
-6.11043210957
-6.18371402865
-6.25688238079
-6.32992857098
-6.40284330616
-6.47561660716
-6.54823782563
-6.62069575292
-6.69297856448
-6.76507364265
-6.83696761291
-6.90864635606
-6.98009486379
-7.05129712854
-7.12223615269
-7.19289402757
-7.26325189311
-7.33328984969
-7.40298687258
-7.47232068824
-7.54126773337
-7.60980315843
-7.67790088771
-7.74553367283
-7.81267298182
-7.87928888045
-7.94534990355
-8.0108229546
-8.07567333976
-8.13986478924
-8.20335949174
-8.26611797411
-8.32809901473
-8.38925963878
-8.44955502582
-8.50893843912
-8.56736127416
-8.62477313583
-8.6811219255
-8.73635361315
-8.79041219574
-8.84323974703
-8.89477620583
-8.94495938909
-8.99372512592
-9.04100720907
-9.08673743425
-9.13084568992
-9.17325994651
-9.21390629779
-9.25270900801
-9.28959043893
-9.32447119402
-9.35727001699
-9.38790370881
-9.41628745424
-9.44233477389
-9.46595749518
-9.48706603458
-9.50556944642
-9.52137553967
-9.53439088834
-9.54452134115
-9.55167190003
-9.55574642716
-9.55664834687
-9.55428067596
-9.54854600029
-9.53934711831
-9.52658655415
-9.51016675855
-9.48999091603
-9.46596295867
-9.43798775223
-9.405971238
-9.36982070538
-9.32944519523
-9.28475575829
-9.23566581677
-9.18209115555
-9.12395042819
-9.06116588747
-8.99366346635
-8.92137347313
-8.84423127295
-8.76217756144
-8.6751593165
-8.58313091139
-8.48605517396
-8.38390452018
-8.27666248959
-8.16432591274
-8.04690838233
-7.92444244758
-7.79698424789
-7.66461910894
-7.52746650939
-7.38568846961
-7.23949854407
-7.08916966074
-6.93504697342
-6.7775585947
-6.61723404425
-6.45472812731
-1.9185931299
-1.88754373004
-1.9174738998
-1.9872465297
-2.07641457883
-2.17529119702
-2.27717037833
-2.37764270108
-2.47456932456
-2.56731572644
-2.65605301909
-2.74131950599
-2.82376460591
-2.90401228624
-2.98260107113
-3.05996761665
-3.13645147733
-3.2123088774
-3.2877285688
-3.36284679214
-3.43776034727
-3.51253676279
-3.58722237444
-3.66184874117
-3.73643505504
-3.81099559998
-3.88553814037
-3.9600671471
-4.03458507664
-4.10909286579
-4.18359042863
-4.25807713709
-4.33255189718