/*--------------------------------*- C++ -*----------------------------------*\
| =========                 |                                                 |
| \\      /  F ield         | OpenFOAM: The Open Source CFD Toolbox           |
|  \\    /   O peration     | Version:  2106                                  |
|   \\  /    A nd           | Website:  www.openfoam.com                      |
|    \\/     M anipulation  |                                                 |
\*---------------------------------------------------------------------------*/
FoamFile
{
    version     2.0;
    format      ascii;
    arch        "LSB;label=32;scalar=64";
    class       volVectorField;
    location    "0.18";
    object      U;
}
// * * * * * * * * * * * * * * * * * * * * * * * * * * * * * * * * * * * * * //

dimensions      [0 1 -1 0 0 0 0];

internalField   nonuniform List<vector> 
9600
(
(0.675396183528 0.157677433934 0)
(0.563826162095 0.102430804513 0)
(0.381538936473 0.0510646939609 0)
(0.283853198183 0.0244589895162 0)
(0.23228104017 0.0119348226737 0)
(0.201907719738 0.00623035825468 0)
(0.183178416443 0.00352192686475 0)
(0.17127199484 0.00212007520307 0)
(0.163512248653 0.00132523505477 0)
(0.158392667838 0.000841455674169 0)
(0.155010707368 0.000534134860476 0)
(0.15278999247 0.000335038727493 0)
(0.151348708165 0.000205520834558 0)
(0.150429264415 0.000121792223266 0)
(0.149856480063 6.84343392813e-05 0)
(0.149511144925 3.51737399647e-05 0)
(0.149312535171 1.50870317225e-05 0)
(0.149206483624 3.50383369228e-06 0)
(0.149157101198 -2.70720231291e-06 0)
(0.149140989923 -5.61186998887e-06 0)
(0.149143272977 -6.52761507247e-06 0)
(0.149154670272 -6.41836828808e-06 0)
(0.149169611128 -5.78240505268e-06 0)
(0.149184985313 -4.92847823068e-06 0)
(0.149199158409 -4.04265770261e-06 0)
(0.149211409117 -3.2236888046e-06 0)
(0.149221549159 -2.51521332007e-06 0)
(0.149229678644 -1.92877050901e-06 0)
(0.149236034976 -1.45877847721e-06 0)
(0.149240903398 -1.09202929729e-06 0)
(0.149244566025 -8.12142268416e-07 0)
(0.149247277248 -6.02471966195e-07 0)
(0.149249254709 -4.48173294652e-07 0)
(0.149250676997 -3.36673881886e-07 0)
(0.149251685836 -2.57123544148e-07 0)
(0.149252391564 -2.00711466279e-07 0)
(0.149252878814 -1.60856733648e-07 0)
(0.149253210089 -1.32338206616e-07 0)
(0.149253431044 -1.1133033542e-07 0)
(0.149253575487 -9.54765522389e-08 0)
(0.149253667738 -8.32506752488e-08 0)
(0.149253725532 -7.42840519962e-08 0)
(0.149253761297 -7.02291249461e-08 0)
(0.149253781875 -7.0835590286e-08 0)
(0.149253791939 -7.35751302579e-08 0)
(0.1492537954 -7.77582514837e-08 0)
(0.149253794171 -8.32241098423e-08 0)
(0.149253790175 -9.03935745511e-08 0)
(0.149253785675 -9.90559675363e-08 0)
(0.149253781167 -1.08499336642e-07 0)
(0.149253776558 -1.18081415783e-07 0)
(0.149253772705 -1.28309675161e-07 0)
(0.149253769384 -1.39327165096e-07 0)
(0.149253765557 -1.50493057632e-07 0)
(0.149253761708 -1.61977943433e-07 0)
(0.149253758358 -1.74327119245e-07 0)
(0.14925375532 -1.87714645833e-07 0)
(0.149253753029 -2.02193765037e-07 0)
(0.149253751268 -2.1735589771e-07 0)
(0.149253749289 -2.32901952216e-07 0)
(0.1492537472 -2.49589420594e-07 0)
(0.149253744464 -2.67747046819e-07 0)
(0.14925374041 -2.87013664433e-07 0)
(0.149253735928 -3.07559801296e-07 0)
(0.149253731478 -3.29521457564e-07 0)
(0.149253726568 -3.52600437624e-07 0)
(0.149253721824 -3.77269453209e-07 0)
(0.1492537175 -4.0389032892e-07 0)
(0.149253712413 -4.3176835488e-07 0)
(0.149253706558 -4.60695206936e-07 0)
(0.149253700656 -4.91387714754e-07 0)
(0.149253694429 -5.24385037395e-07 0)
(0.149253687725 -5.59640174958e-07 0)
(0.149253680892 -5.96572086763e-07 0)
(0.149253674395 -6.34821683714e-07 0)
(0.149253669132 -6.75216651204e-07 0)
(0.14925366471 -7.18002502661e-07 0)
(0.149253659478 -7.62322083888e-07 0)
(0.149253653696 -8.08729880738e-07 0)
(0.149253647891 -8.58388817138e-07 0)
(0.149253640783 -9.10639826884e-07 0)
(0.149253633171 -9.64776283913e-07 0)
(0.149253627974 -1.0216365817e-06 0)
(0.149253624252 -1.08120527414e-06 0)
(0.149253619121 -1.14278395267e-06 0)
(0.149253613704 -1.20721317402e-06 0)
(0.149253609698 -1.27493662504e-06 0)
(0.149253605948 -1.34507794823e-06 0)
(0.149253601704 -1.41769166874e-06 0)
(0.149253597279 -1.49324528804e-06 0)
(0.149253592937 -1.57190577517e-06 0)
(0.149253589281 -1.65430729367e-06 0)
(0.149253585584 -1.73983295306e-06 0)
(0.149253580344 -1.82679246305e-06 0)
(0.149253576289 -1.91660225711e-06 0)
(0.149253576597 -2.01128450641e-06 0)
(0.149253578161 -2.10837943463e-06 0)
(0.149253580173 -2.20645019249e-06 0)
(0.149253587416 -2.30759178797e-06 0)
(0.149253599569 -2.41083670069e-06 0)
(0.149253613566 -2.51421094518e-06 0)
(0.149253632471 -2.62022007556e-06 0)
(0.149253658556 -2.72985336115e-06 0)
(0.149253691477 -2.84082520836e-06 0)
(0.149253736156 -2.95382889286e-06 0)
(0.149253796153 -3.06942218598e-06 0)
(0.149253872009 -3.18658735156e-06 0)
(0.149253968667 -3.30628635978e-06 0)
(0.14925409081 -3.43031090063e-06 0)
(0.149254242097 -3.56253563042e-06 0)
(0.149254433068 -3.71273174786e-06 0)
(0.149254673185 -3.87777952668e-06 0)
(0.149254968916 -4.0496766218e-06 0)
(0.149255337977 -4.22985984313e-06 0)
(0.149255801301 -4.4223811723e-06 0)
(0.149256376101 -4.6265559828e-06 0)
(0.14925708851 -4.84260172082e-06 0)
(0.149257973652 -5.07242904144e-06 0)
(0.149259069639 -5.31711344866e-06 0)
(0.149260424261 -5.57859160982e-06 0)
(0.149262102884 -5.86021176576e-06 0)
(0.149264184079 -6.16439850155e-06 0)
(0.149266765931 -6.50010475339e-06 0)
(0.149269985972 -6.90154633641e-06 0)
(0.149273999346 -7.45516336795e-06 0)
(0.149278949708 -8.21595272047e-06 0)
(0.14928504359 -9.12119864474e-06 0)
(0.149292579641 -1.01448802127e-05 0)
(0.14930191472 -1.12931421274e-05 0)
(0.149313477997 -1.25852673624e-05 0)
(0.149327796211 -1.4039976394e-05 0)
(0.149345527652 -1.56816170815e-05 0)
(0.149367491512 -1.75474130222e-05 0)
(0.149394698003 -1.96797494863e-05 0)
(0.149428401733 -2.21315180236e-05 0)
(0.14947016202 -2.49735964875e-05 0)
(0.1495219128 -2.82926225115e-05 0)
(0.149586060484 -3.21961090087e-05 0)
(0.149665601007 -3.68210911941e-05 0)
(0.149764267816 -4.23440404306e-05 0)
(0.149886713908 -4.898687911e-05 0)
(0.150038756417 -5.70309052772e-05 0)
(0.150227693609 -6.68378757392e-05 0)
(0.150462691347 -7.88705287607e-05 0)
(0.150755307236 -9.37250433244e-05 0)
(0.151120183805 -0.000112172783634 0)
(0.151575970098 -0.000135218582831 0)
(0.152146580621 -0.000164181155783 0)
(0.152862927126 -0.000200802654142 0)
(0.153765381543 -0.000247402585513 0)
(0.154907371188 -0.000307111409737 0)
(0.15636089377 -0.000384311193942 0)
(0.158225818846 -0.000485843665401 0)
(0.160648464426 -0.000625455274226 0)
(0.163865696699 -0.000840976156694 0)
(0.168315635103 -0.0012578718701 0)
(0.174978725431 -0.0023219895864 0)
(0.186775238528 -0.00569952923008 0)
(0.212635830039 -0.0177551615674 0)
(0.269788876059 -0.0623034920681 0)
(0.977201173873 0.296997120835 0)
(0.962687466994 0.250387268858 0)
(0.820646039434 0.158581012717 0)
(0.697824904807 0.0957993480822 0)
(0.610491678253 0.0579132762642 0)
(0.549133325676 0.0359038518451 0)
(0.506705995181 0.0229309364125 0)
(0.477662028656 0.0149788782818 0)
(0.457815307513 0.00990973040485 0)
(0.444277683981 0.00658330800446 0)
(0.435087236819 0.00436198609216 0)
(0.428895569846 0.00286682608817 0)
(0.424768055504 0.00185972072262 0)
(0.422054249852 0.00118457309274 0)
(0.420301071012 0.000736111564686 0)
(0.419193699312 0.000442159797818 0)
(0.418514629654 0.000252859915557 0)
(0.41811485197 0.000133738454446 0)
(0.417893392107 6.10510920271e-05 0)
(0.41778274812 1.85763522302e-05 0)
(0.417738490291 -4.63567985976e-06 0)
(0.417731954071 -1.60114612179e-05 0)
(0.417745172556 -2.0307798052e-05 0)
(0.417767199472 -2.06105838793e-05 0)
(0.417791652403 -1.88571461896e-05 0)
(0.41781507033 -1.62227569998e-05 0)
(0.417835793664 -1.3385991939e-05 0)
(0.417853230256 -1.07094180248e-05 0)
(0.417867384114 -8.36163295664e-06 0)
(0.417878561943 -6.39844403076e-06 0)
(0.417887195203 -4.8126298678e-06 0)
(0.417893737757 -3.56491957971e-06 0)
(0.417898613542 -2.60406025318e-06 0)
(0.417902192821 -1.87791027528e-06 0)
(0.41790478373 -1.33778759909e-06 0)
(0.417906633747 -9.41179046733e-07 0)
(0.417907937593 -6.53640310262e-07 0)
(0.41790884421 -4.47531313723e-07 0)
(0.41790946485 -3.0123649755e-07 0)
(0.417909882658 -1.98908382757e-07 0)
(0.417910158604 -1.28547922838e-07 0)
(0.417910335871 -8.11039944007e-08 0)
(0.417910446374 -5.15631251288e-08 0)
(0.417910513496 -3.5194579466e-08 0)
(0.417910551771 -2.66837238965e-08 0)
(0.417910570442 -2.32397066465e-08 0)
(0.417910575496 -2.21452672361e-08 0)
(0.417910572158 -2.08193976474e-08 0)
(0.41791056558 -2.01963420665e-08 0)
(0.417910557925 -2.04404871296e-08 0)
(0.41791054896 -2.07329075974e-08 0)
(0.417910539433 -2.15988839425e-08 0)
(0.417910530501 -2.35220085062e-08 0)
(0.417910521362 -2.54312744092e-08 0)
(0.41791051158 -2.70798408319e-08 0)
(0.417910501651 -2.90649098914e-08 0)
(0.417910491719 -3.13737518719e-08 0)
(0.417910482665 -3.41166372277e-08 0)
(0.417910474644 -3.70792932924e-08 0)
(0.417910465991 -3.94640814538e-08 0)
(0.417910456321 -4.20328926585e-08 0)
(0.417910446043 -4.54391879758e-08 0)
(0.417910434445 -4.88584003566e-08 0)
(0.417910421733 -5.23844154566e-08 0)
(0.417910408757 -5.65183126352e-08 0)
(0.417910394945 -6.04620300886e-08 0)
(0.417910380441 -6.43994053131e-08 0)
(0.417910366398 -6.93092100109e-08 0)
(0.417910352022 -7.44432508237e-08 0)
(0.417910336186 -7.90024947062e-08 0)
(0.417910319014 -8.37054685875e-08 0)
(0.417910300632 -8.92454521929e-08 0)
(0.417910281694 -9.55061504954e-08 0)
(0.417910262962 -1.01639238399e-07 0)
(0.417910243843 -1.06741086935e-07 0)
(0.417910224843 -1.11878765912e-07 0)
(0.417910207098 -1.18192372108e-07 0)
(0.417910188613 -1.24475278072e-07 0)
(0.417910167823 -1.30763422878e-07 0)
(0.417910146162 -1.38801150771e-07 0)
(0.417910123838 -1.47345191103e-07 0)
(0.417910100615 -1.54102520182e-07 0)
(0.417910079181 -1.60785381879e-07 0)
(0.417910059713 -1.69258607549e-07 0)
(0.417910038284 -1.78128719282e-07 0)
(0.417910015312 -1.87055216587e-07 0)
(0.417909994215 -1.97050593296e-07 0)
(0.417909974463 -2.07833373978e-07 0)
(0.417909954619 -2.19155347693e-07 0)
(0.417909934713 -2.30719796831e-07 0)
(0.417909914493 -2.42093541265e-07 0)
(0.417909895412 -2.54781104527e-07 0)
(0.417909879224 -2.69506879128e-07 0)
(0.417909863472 -2.83255464054e-07 0)
(0.417909848404 -2.96313247376e-07 0)
(0.417909840462 -3.13608442287e-07 0)
(0.417909839357 -3.33696584667e-07 0)
(0.417909841375 -3.52646759234e-07 0)
(0.417909852419 -3.73893808791e-07 0)
(0.417909877036 -4.00850436044e-07 0)
(0.417909910999 -4.30701382798e-07 0)
(0.417909956451 -4.65293557228e-07 0)
(0.417910021148 -5.06996464033e-07 0)
(0.417910107471 -5.52387832489e-07 0)
(0.417910221398 -6.0229971431e-07 0)
(0.417910372553 -6.59530554618e-07 0)
(0.417910566695 -7.23197188877e-07 0)
(0.417910812296 -7.94221459173e-07 0)
(0.417911118857 -8.72958268465e-07 0)
(0.417911492827 -9.54312983119e-07 0)
(0.417911963263 -1.03335863381e-06 0)
(0.417912569082 -1.11943820234e-06 0)
(0.417913330937 -1.21444688239e-06 0)
(0.417914279157 -1.32323865831e-06 0)
(0.41791546406 -1.45652339618e-06 0)
(0.417916940244 -1.61986136167e-06 0)
(0.417918774527 -1.81916171715e-06 0)
(0.41792105403 -2.06577349957e-06 0)
(0.417923881931 -2.3719979847e-06 0)
(0.417927384847 -2.75067896461e-06 0)
(0.417931727902 -3.22126043026e-06 0)
(0.417937110829 -3.80756936613e-06 0)
(0.417943767278 -4.54138223644e-06 0)
(0.417951979726 -5.47858689062e-06 0)
(0.417962124769 -6.72351663672e-06 0)
(0.417974726956 -8.37728947687e-06 0)
(0.417990401999 -1.04686921923e-05 0)
(0.418009852054 -1.3065321832e-05 0)
(0.418033961515 -1.62802938054e-05 0)
(0.4180638407 -2.0261189584e-05 0)
(0.418100865702 -2.51827691599e-05 0)
(0.418146736766 -3.1262501132e-05 0)
(0.418203568302 -3.87777523741e-05 0)
(0.418273982566 -4.80665507109e-05 0)
(0.418361226879 -5.95471703278e-05 0)
(0.418469334644 -7.37440198662e-05 0)
(0.41860331746 -9.13072237064e-05 0)
(0.418769405261 -0.000113045946573 0)
(0.41897534777 -0.000139972155326 0)
(0.419230800936 -0.000173361815535 0)
(0.419547807927 -0.000214817530973 0)
(0.419941419435 -0.000266359005424 0)
(0.420430501567 -0.000330558702355 0)
(0.421038754983 -0.000410702992506 0)
(0.421796065615 -0.000511019442215 0)
(0.422740298054 -0.000636993652537 0)
(0.423919696849 -0.000795820935441 0)
(0.425396188364 -0.000997069589103 0)
(0.427250010423 -0.00125367289841 0)
(0.429586433165 -0.00158351417277 0)
(0.432545913489 -0.00201213018773 0)
(0.436320262842 -0.00257776256658 0)
(0.44118003375 -0.00334203456813 0)
(0.447524823689 -0.00441558393332 0)
(0.455982537801 -0.0060260744009 0)
(0.467599568427 -0.00870622077694 0)
(0.484198062604 -0.0138161099676 0)
(0.509286179294 -0.025053092845 0)
(0.549724752157 -0.0527793601145 0)
(0.610085099388 -0.122324722226 0)
(1.03387038834 0.239240964234 0)
(1.08314082114 0.293634380312 0)
(1.03294438395 0.239131934904 0)
(0.954408216619 0.174539019777 0)
(0.880112594187 0.121551463587 0)
(0.818677624963 0.0832335933985 0)
(0.771466800009 0.0568258118289 0)
(0.736691578058 0.0388125718403 0)
(0.711672104825 0.026491316372 0)
(0.693953133016 0.0180235754066 0)
(0.681568207953 0.0121876199559 0)
(0.673018610412 0.008166503644 0)
(0.667192245306 0.00540556651711 0)
(0.663277766068 0.00352226382953 0)
(0.660690330962 0.00224961293277 0)
(0.659012757564 0.00140002844851 0)
(0.657950549256 0.000841455838373 0)
(0.657298093779 0.000481122629608 0)
(0.656913548482 0.000254193454913 0)
(0.656700356843 0.000115710072735 0)
(0.656593749119 3.47955640359e-05 0)
(0.656551037141 -9.46622184595e-06 0)
(0.656544697179 -3.10108631743e-05 0)
(0.656557399127 -3.90754917532e-05 0)
(0.656578586742 -3.95489517901e-05 0)
(0.656602114573 -3.61226934941e-05 0)
(0.656624649158 -3.1034980793e-05 0)
(0.656644592629 -2.55757236239e-05 0)
(0.65666137422 -2.04329824291e-05 0)
(0.656674997496 -1.59267659935e-05 0)
(0.656685757425 -1.21610040978e-05 0)
(0.656694068393 -9.1195138912e-06 0)
(0.656700366954 -6.72665026585e-06 0)
(0.656705061534 -4.88434222333e-06 0)
(0.656708508601 -3.4921211843e-06 0)
(0.656711004004 -2.45683645356e-06 0)
(0.656712786059 -1.69857380654e-06 0)
(0.656714041531 -1.15174100048e-06 0)
(0.656714912847 -7.63329272251e-07 0)
(0.656715508062 -4.91962552997e-07 0)
(0.656715908504 -3.05944958697e-07 0)
(0.656716173097 -1.80520216003e-07 0)
(0.656716344317 -9.72370028944e-08 0)
(0.656716452424 -4.33499951177e-08 0)
(0.656716517485 -9.7377738905e-09 0)
(0.656716554081 1.00503852295e-08 0)
(0.656716572834 2.11140631451e-08 0)
(0.656716578892 2.84743277404e-08 0)
(0.656716576208 3.34161098389e-08 0)
(0.656716569193 3.63673057109e-08 0)
(0.656716559276 3.91097768549e-08 0)
(0.656716547443 4.23490647812e-08 0)
(0.656716535572 4.53610128214e-08 0)
(0.656716523877 4.83548409612e-08 0)
(0.656716511693 5.18459070195e-08 0)
(0.656716499153 5.57333472699e-08 0)
(0.656716486367 6.03386446977e-08 0)
(0.656716474054 6.55472620561e-08 0)
(0.656716462911 7.05191603268e-08 0)
(0.656716451533 7.58607241866e-08 0)
(0.656716438843 8.19882825395e-08 0)
(0.656716425456 8.81345063686e-08 0)
(0.656716410973 9.45607302718e-08 0)
(0.656716394957 1.01508080404e-07 0)
(0.656716378451 1.08334529748e-07 0)
(0.656716361378 1.15639664091e-07 0)
(0.656716343117 1.24141399552e-07 0)
(0.656716324752 1.3284680607e-07 0)
(0.656716306453 1.41457439108e-07 0)
(0.65671628688 1.50769397942e-07 0)
(0.656716265446 1.60904950138e-07 0)
(0.656716242345 1.71862189323e-07 0)
(0.65671621849 1.83657844932e-07 0)
(0.656716195035 1.96049361051e-07 0)
(0.656716171228 2.09866112802e-07 0)
(0.656716146555 2.25364782576e-07 0)
(0.656716122614 2.40725547764e-07 0)
(0.656716098434 2.55817047791e-07 0)
(0.656716071378 2.72060692403e-07 0)
(0.656716042859 2.88899079383e-07 0)
(0.656716015197 3.06435876146e-07 0)
(0.65671598719 3.27007971131e-07 0)
(0.65671595867 3.49642022696e-07 0)
(0.656715931053 3.71002204054e-07 0)
(0.656715902669 3.92179108651e-07 0)
(0.656715872874 4.15542432231e-07 0)
(0.656715844091 4.39965479867e-07 0)
(0.656715816639 4.64347682035e-07 0)
(0.656715790145 4.89273213135e-07 0)
(0.656715765226 5.15554529829e-07 0)
(0.656715740376 5.44411720111e-07 0)
(0.656715715262 5.75431737803e-07 0)
(0.656715693666 6.05832444754e-07 0)
(0.656715675677 6.36733774558e-07 0)
(0.656715658494 6.71441417954e-07 0)
(0.656715646923 7.06162264675e-07 0)
(0.656715645143 7.37979533396e-07 0)
(0.656715649905 7.72001575862e-07 0)
(0.656715662894 8.09538627694e-07 0)
(0.656715691471 8.47069203952e-07 0)
(0.65671573618 8.84542430237e-07 0)
(0.656715798444 9.22571452711e-07 0)
(0.656715887784 9.57403410231e-07 0)
(0.656716009782 9.88836517681e-07 0)
(0.656716170684 1.01656232486e-06 0)
(0.656716383012 1.0362745006e-06 0)
(0.656716657863 1.04561630467e-06 0)
(0.656717009833 1.04180850705e-06 0)
(0.656717461372 1.02088098226e-06 0)
(0.656718036597 9.85877180218e-07 0)
(0.656718756654 9.42052095856e-07 0)
(0.656719651895 8.7164809272e-07 0)
(0.656720763838 7.61763448689e-07 0)
(0.656722142543 6.04780826937e-07 0)
(0.656723856607 3.82886255266e-07 0)
(0.656725986731 7.66492444516e-08 0)
(0.656728629424 -3.33704732913e-07 0)
(0.656731907232 -8.77531401251e-07 0)
(0.656735970936 -1.59190360351e-06 0)
(0.656741003662 -2.51701183859e-06 0)
(0.65674723781 -3.70664578206e-06 0)
(0.656754962557 -5.23092827256e-06 0)
(0.656764530455 -7.17240213624e-06 0)
(0.656776377333 -9.62895102363e-06 0)
(0.656791040762 -1.27108568934e-05 0)
(0.656809195491 -1.65732367893e-05 0)
(0.656831678066 -2.1444315303e-05 0)
(0.656859514476 -2.7585335541e-05 0)
(0.656893981527 -3.53113329517e-05 0)
(0.656936669141 -4.50133694045e-05 0)
(0.656989542586 -5.71779880792e-05 0)
(0.657055027554 -7.24061088572e-05 0)
(0.657136138952 -9.1444638209e-05 0)
(0.657236617388 -0.000115221088687 0)
(0.657361095282 -0.000144885061476 0)
(0.657515323197 -0.000181865873959 0)
(0.657706443409 -0.000227942791043 0)
(0.65794333152 -0.000285333760355 0)
(0.658237020771 -0.00035680817601 0)
(0.658601248833 -0.000445841675666 0)
(0.659053143488 -0.000556801211786 0)
(0.659614083796 -0.000695188230363 0)
(0.660310825352 -0.000867984043527 0)
(0.661176934175 -0.00108409321288 0)
(0.662254656174 -0.00135495198094 0)
(0.663597383357 -0.0016953821545 0)
(0.665272940426 -0.00212480950156 0)
(0.667368070348 -0.00266905643589 0)
(0.669994650972 -0.00336306435768 0)
(0.673298572212 -0.00425525633259 0)
(0.677472852427 -0.00541490572083 0)
(0.68277771097 -0.00694546477045 0)
(0.689572342264 -0.00901052338793 0)
(0.698366856574 -0.0118877725204 0)
(0.709908305428 -0.0160877502107 0)
(0.725308184663 -0.0226211494474 0)
(0.746171857686 -0.0335797443509 0)
(0.77468026154 -0.053324853255 0)
(0.813124987523 -0.0907438155501 0)
(0.857726701732 -0.160957874419 0)
(1.033841284 0.171306948999 0)
(1.10231585269 0.275556746555 0)
(1.116636216 0.266312373554 0)
(1.09207925601 0.219892603921 0)
(1.05195420806 0.16821031663 0)
(1.01022222323 0.123615335642 0)
(0.97350772518 0.0888850588228 0)
(0.943885951918 0.0630494607863 0)
(0.921162804447 0.0442607967476 0)
(0.904299829484 0.0307744338933 0)
(0.892086144705 0.0211830158062 0)
(0.883411247627 0.0144172999734 0)
(0.877355081364 0.00968544397501 0)
(0.873196239093 0.00640758976089 0)
(0.87038809065 0.00416172597551 0)
(0.868526286788 0.00264232314408 0)
(0.867317329469 0.00162947738345 0)
(0.866551614988 0.000966024074384 0)
(0.866081687161 0.000540570644163 0)
(0.865805329755 0.000274923539802 0)
(0.865652756056 0.000114787139013 0)
(0.865577125485 2.29509327639e-05 0)
(0.865547515607 -2.5731318228e-05 0)
(0.865543981914 -4.80531815817e-05 0)
(0.865554033874 -5.49352579973e-05 0)
(0.865570041489 -5.33388497379e-05 0)
(0.865587583382 -4.7588008044e-05 0)
(0.865604278695 -4.0263393336e-05 0)
(0.865618998444 -3.28190625437e-05 0)
(0.86563135255 -2.60033020496e-05 0)
(0.865641362676 -2.01381470772e-05 0)
(0.865649256828 -1.52992005169e-05 0)
(0.865655346105 -1.14294454699e-05 0)
(0.865659955687 -8.41005987282e-06 0)
(0.865663388596 -6.10218816131e-06 0)
(0.865665907098 -4.36893429352e-06 0)
(0.865667728494 -3.08771223312e-06 0)
(0.8656690277 -2.15499524966e-06 0)
(0.865669941173 -1.48553822713e-06 0)
(0.865670573776 -1.0112609885e-06 0)
(0.865671005655 -6.79890012727e-07 0)
(0.865671295751 -4.51663628772e-07 0)
(0.865671486497 -2.97084931849e-07 0)
(0.865671608815 -1.94867013169e-07 0)
(0.865671683846 -1.28627864758e-07 0)
(0.865671726549 -8.67276994594e-08 0)
(0.865671748256 -6.18385155513e-08 0)
(0.865671755886 -4.81924275687e-08 0)
(0.865671754269 -4.07803372766e-08 0)
(0.865671748182 -3.77707067828e-08 0)
(0.865671739333 -3.72180465746e-08 0)
(0.865671727619 -3.7479653781e-08 0)
(0.865671714549 -3.86913015111e-08 0)
(0.865671701023 -4.12776757517e-08 0)
(0.865671686699 -4.49521810347e-08 0)
(0.865671671763 -4.94969675668e-08 0)
(0.865671656338 -5.42095573017e-08 0)
(0.865671640576 -5.88194214807e-08 0)
(0.865671625224 -6.42819522676e-08 0)
(0.865671609758 -7.04696779629e-08 0)
(0.865671592871 -7.65815709864e-08 0)
(0.865671574749 -8.33018514703e-08 0)
(0.86567155536 -9.08041430513e-08 0)
(0.86567153417 -9.8283877485e-08 0)
(0.865671512139 -1.06102608307e-07 0)
(0.865671489671 -1.14570038281e-07 0)
(0.865671465773 -1.22931008058e-07 0)
(0.865671440933 -1.31452897845e-07 0)
(0.865671415824 -1.40801311836e-07 0)
(0.865671389523 -1.50792437471e-07 0)
(0.865671361369 -1.6103139151e-07 0)
(0.865671331373 -1.71023278183e-07 0)
(0.865671299952 -1.80676741648e-07 0)
(0.865671268512 -1.91022458308e-07 0)
(0.865671237007 -2.0199280448e-07 0)
(0.865671203903 -2.12545683361e-07 0)
(0.865671170147 -2.24021101267e-07 0)
(0.865671136369 -2.37551951297e-07 0)
(0.865671100232 -2.51374306676e-07 0)
(0.865671062006 -2.64740498822e-07 0)
(0.865671024767 -2.78956139445e-07 0)
(0.865670987586 -2.93555636677e-07 0)
(0.865670948296 -3.0791136527e-07 0)
(0.865670908723 -3.24150516066e-07 0)
(0.865670869468 -3.42867121464e-07 0)
(0.865670829149 -3.62234779165e-07 0)
(0.865670788948 -3.82375671054e-07 0)
(0.865670749965 -4.04016633272e-07 0)
(0.86567071228 -4.27064401474e-07 0)
(0.865670676975 -4.52452709413e-07 0)
(0.865670642929 -4.79788264039e-07 0)
(0.865670608029 -5.0728315997e-07 0)
(0.865670575856 -5.37316359651e-07 0)
(0.86567054974 -5.72533950041e-07 0)
(0.865670526344 -6.09547571917e-07 0)
(0.865670507419 -6.48657655249e-07 0)
(0.865670500279 -6.94800509292e-07 0)
(0.865670505473 -7.46145462759e-07 0)
(0.865670523767 -8.00433817839e-07 0)
(0.865670560689 -8.61248382469e-07 0)
(0.865670616918 -9.3044975445e-07 0)
(0.865670693597 -1.00616673219e-06 0)
(0.865670800261 -1.09254628537e-06 0)
(0.865670945196 -1.19303700233e-06 0)
(0.865671135845 -1.30826370276e-06 0)
(0.865671385821 -1.44280066538e-06 0)
(0.86567170835 -1.60159392952e-06 0)
(0.865672118594 -1.79018808662e-06 0)
(0.865672640458 -2.01944817306e-06 0)
(0.865673299578 -2.30012366944e-06 0)
(0.865674123144 -2.64603428784e-06 0)
(0.865675154706 -3.07277292231e-06 0)
(0.865676446449 -3.59732395575e-06 0)
(0.865678053496 -4.23736702853e-06 0)
(0.865680051683 -5.02183126931e-06 0)
(0.865682537312 -5.98574387246e-06 0)
(0.865685623471 -7.16791161412e-06 0)
(0.865689450725 -8.62043616709e-06 0)
(0.865694196253 -1.04115566647e-05 0)
(0.865700076008 -1.26201581645e-05 0)
(0.865707359128 -1.53438068434e-05 0)
(0.865716382651 -1.87087422114e-05 0)
(0.865727560224 -2.28712536434e-05 0)
(0.865741403829 -2.80266204111e-05 0)
(0.865758544986 -3.44145066075e-05 0)
(0.865779768391 -4.2328293617e-05 0)
(0.865806047405 -5.21341456219e-05 0)
(0.865838583191 -6.42773794934e-05 0)
(0.865878865297 -7.9306265531e-05 0)
(0.865928743383 -9.79099515575e-05 0)
(0.865990508625 -0.000120953023164 0)
(0.866066993086 -0.000149501963679 0)
(0.866161710936 -0.000184879953522 0)
(0.866279021366 -0.000228735608868 0)
(0.866424324007 -0.000283117288148 0)
(0.866604317991 -0.000350572939547 0)
(0.866827319274 -0.000434275154357 0)
(0.867103655796 -0.000538182084056 0)
(0.86744615347 -0.000667236855141 0)
(0.867870763425 -0.000827632023092 0)
(0.868397350943 -0.00102714905269 0)
(0.869050670113 -0.00127558892256 0)
(0.869861630233 -0.00158535763196 0)
(0.870868905324 -0.00197224306517 0)
(0.872121004763 -0.00245647015618 0)
(0.873678972234 -0.00306416452709 0)
(0.875619925306 -0.00382942035592 0)
(0.878041789879 -0.0047973185914 0)
(0.881069682756 -0.00602846743428 0)
(0.884864696968 -0.00760609543123 0)
(0.889636214688 -0.00964766019494 0)
(0.895659319113 -0.0123248413221 0)
(0.903299378 -0.0158996861866 0)
(0.913045485092 -0.0207926227647 0)
(0.925550864904 -0.0277139090854 0)
(0.94165850123 -0.037917110183 0)
(0.96232402007 -0.0536544904309 0)
(0.98826218803 -0.0788591857358 0)
(1.01886028789 -0.119816397052 0)
(1.04805416408 -0.18402200864 0)
(1.02388346137 0.11932198617 0)
(1.08875436788 0.231514423975 0)
(1.13660483946 0.25286894094 0)
(1.15406273654 0.228905048137 0)
(1.15000113417 0.188337385988 0)
(1.13537624548 0.146577291058 0)
(1.11757778288 0.110164819228 0)
(1.10059200102 0.0808376051243 0)
(1.08612241564 0.0582501996708 0)
(1.07458762339 0.0413417853292 0)
(1.06578680367 0.0289362836751 0)
(1.05928157737 0.0199770216542 0)
(1.05459134282 0.013594932072 0)
(1.05128028869 0.00910742957536 0)
(1.04898738497 0.00599313499758 0)
(1.04742907663 0.00386144230781 0)
(1.0463904834 0.00242413629816 0)
(1.04571301421 0.00147134677577 0)
(1.04528208178 0.000852133311898 0)
(1.04501639964 0.000459259030904 0)
(1.04485927788 0.000217483895544 0)
(1.04477185035 7.47109242907e-05 0)
(1.04472787188 -4.65448516624e-06 0)
(1.04471000913 -4.44560710532e-05 0)
(1.04470708633 -6.05486550712e-05 0)
(1.04471201235 -6.31087248897e-05 0)
(1.04472045563 -5.85621050623e-05 0)
(1.0447299004 -5.08325509219e-05 0)
(1.04473897947 -4.220482295e-05 0)
(1.04474703215 -3.39204513529e-05 0)
(1.04475381815 -2.6577902174e-05 0)
(1.04475933294 -2.03941107365e-05 0)
(1.04476369182 -1.53715659505e-05 0)
(1.04476706029 -1.14034224839e-05 0)
(1.04476961506 -8.33788269474e-06 0)
(1.04477152082 -6.01397918286e-06 0)
(1.0447729203 -4.28122640649e-06 0)
(1.04477393309 -3.00893169085e-06 0)
(1.0447746556 -2.08775856031e-06 0)
(1.04477516324 -1.4291257279e-06 0)
(1.04477551467 -9.64271120489e-07 0)
(1.04477575411 -6.40719846879e-07 0)
(1.04477591386 -4.18702431034e-07 0)
(1.04477601817 -2.68796158416e-07 0)
(1.04477608389 -1.68621289307e-07 0)
(1.04477612243 -1.01856745066e-07 0)
(1.04477614294 -5.81346954266e-08 0)
(1.04477615136 -2.98901783834e-08 0)
(1.04477615068 -1.1236243615e-08 0)
(1.04477614429 2.48741653891e-10 0)
(1.04477613473 6.22412552341e-09 0)
(1.04477612228 9.43976204434e-09 0)
(1.04477610775 1.14796872776e-08 0)
(1.04477609208 1.27646812176e-08 0)
(1.04477607551 1.37253108222e-08 0)
(1.04477605854 1.41800900591e-08 0)
(1.04477604134 1.44035460602e-08 0)
(1.04477602356 1.50479474308e-08 0)
(1.04477600576 1.56277237499e-08 0)
(1.04477598796 1.58202344289e-08 0)
(1.04477596866 1.63032458585e-08 0)
(1.04477594776 1.66114431201e-08 0)
(1.04477592591 1.63304178659e-08 0)
(1.04477590261 1.65606685639e-08 0)
(1.04477587793 1.7344664607e-08 0)
(1.04477585245 1.77679398925e-08 0)
(1.04477582562 1.83343251715e-08 0)
(1.04477579752 1.95303016263e-08 0)
(1.04477576874 2.09026294067e-08 0)
(1.04477573876 2.22378540692e-08 0)
(1.04477570717 2.36753018255e-08 0)
(1.044775674 2.57384402657e-08 0)
(1.04477563896 2.90921402537e-08 0)
(1.04477560298 3.27696846858e-08 0)
(1.04477556696 3.56328078305e-08 0)
(1.04477552927 3.88208075942e-08 0)
(1.04477548981 4.2673038319e-08 0)
(1.04477545041 4.59846570933e-08 0)
(1.04477540984 4.95361899806e-08 0)
(1.04477536668 5.45788217913e-08 0)
(1.04477532332 5.97251960306e-08 0)
(1.04477528031 6.41981030097e-08 0)
(1.04477523507 6.94745705511e-08 0)
(1.04477518809 7.51340047808e-08 0)
(1.04477514105 7.96744815026e-08 0)
(1.04477509338 8.37616696334e-08 0)
(1.04477504577 8.80272160352e-08 0)
(1.04477499928 9.24029281748e-08 0)
(1.0447749531 9.70957867679e-08 0)
(1.0447749082 1.0072857839e-07 0)
(1.04477486577 1.02327474807e-07 0)
(1.04477482304 1.04285387836e-07 0)
(1.04477478051 1.06497779883e-07 0)
(1.04477474347 1.04690588651e-07 0)
(1.04477471103 9.96738364908e-08 0)
(1.04477468171 9.36049248647e-08 0)
(1.04477466199 8.21609427334e-08 0)
(1.04477465472 6.3072501906e-08 0)
(1.0447746581 3.7246230844e-08 0)
(1.04477467742 -6.30086014457e-10 0)
(1.04477471882 -5.42859317424e-08 0)
(1.04477478343 -1.22512833087e-07 0)
(1.04477487836 -2.09575182492e-07 0)
(1.04477501393 -3.21336598375e-07 0)
(1.04477519842 -4.6053250914e-07 0)
(1.04477544487 -6.33898203604e-07 0)
(1.04477576764 -8.49727058593e-07 0)
(1.04477618172 -1.1152916158e-06 0)
(1.04477671179 -1.44376585998e-06 0)
(1.04477738752 -1.85103243304e-06 0)
(1.04477823606 -2.34981458781e-06 0)
(1.04477929784 -2.9613006671e-06 0)
(1.04478062753 -3.71741624468e-06 0)
(1.04478228434 -4.65081484262e-06 0)
(1.04478434646 -5.80216559999e-06 0)
(1.04478691559 -7.22391370333e-06 0)
(1.04479011008 -8.97777289255e-06 0)
(1.04479407314 -1.11406366813e-05 0)
(1.04479898862 -1.3811998062e-05 0)
(1.04480508373 -1.71112660146e-05 0)
(1.04481263746 -2.11835679359e-05 0)
(1.04482199765 -2.62137836557e-05 0)
(1.04483359415 -3.2433122428e-05 0)
(1.04484796024 -4.01286802962e-05 0)
(1.04486575253 -4.96531233284e-05 0)
(1.04488778148 -6.14420833656e-05 0)
(1.04491505541 -7.6039235229e-05 0)
(1.04494882554 -9.41125777825e-05 0)
(1.04499063823 -0.000116483410639 0)
(1.04504240569 -0.000144174284843 0)
(1.04510650269 -0.000178461120377 0)
(1.04518586938 -0.000220921247574 0)
(1.04528414698 -0.000273509797678 0)
(1.04540584879 -0.000338658955549 0)
(1.04555656456 -0.0004193909317 0)
(1.04574322625 -0.000519462322471 0)
(1.04597443088 -0.000643547783282 0)
(1.04626084495 -0.000797478731439 0)
(1.04661570012 -0.000988532198423 0)
(1.0470554226 -0.00122580768512 0)
(1.04760043095 -0.00152072323995 0)
(1.04827611056 -0.0018876397216 0)
(1.0491140603 -0.00234468997669 0)
(1.05015366347 -0.00291487777373 0)
(1.05144407617 -0.00362755826089 0)
(1.05304677158 -0.00452046883559 0)