/*--------------------------------*- C++ -*----------------------------------*\
| =========                 |                                                 |
| \\      /  F ield         | OpenFOAM: The Open Source CFD Toolbox           |
|  \\    /   O peration     | Version:  2106                                  |
|   \\  /    A nd           | Website:  www.openfoam.com                      |
|    \\/     M anipulation  |                                                 |
\*---------------------------------------------------------------------------*/
FoamFile
{
    version     2.0;
    format      ascii;
    arch        "LSB;label=32;scalar=64";
    class       volScalarField;
    location    "0.006";
    object      p;
}
// * * * * * * * * * * * * * * * * * * * * * * * * * * * * * * * * * * * * * //

dimensions      [0 2 -2 0 0 0 0];

internalField   nonuniform List<scalar> 
160000
(
2.4494
-0.00934009
4.67878
-1.77649
5.88623
-2.33488
5.87242
-1.80544
5.01964
-0.725089
3.91791
0.359258
3.00326
1.15226
2.42918
1.61774
2.14731
1.85081
2.04468
1.9598
2.02808
2.01609
2.04506
2.05434
2.07285
2.08807
2.10386
2.11954
2.13506
2.1503
2.16526
2.17987
2.19406
2.20781
2.22101
2.23368
2.24574
2.25716
2.26788
2.27785
2.28706
2.29543
2.30297
2.30964
2.3154
2.32025
2.32414
2.32707
2.32903
2.32999
2.32998
2.32898
2.32701
2.32406
2.32013
2.31528
2.30948
2.30277
2.29518
2.28675
2.27751
2.26747
2.25673
2.24528
2.23317
2.22048
2.20721
2.19346
2.17924
2.16462
2.14969
2.13445
2.11902
2.10342
2.08774
2.07204
2.05635
2.04079
2.02535
2.01014
1.99521
1.98058
1.96636
1.95257
1.93928
1.92654
1.91439
1.90292
1.89214
1.88212
1.87287
1.86444
1.85688
1.85021
1.84444
1.83962
1.83573
1.83284
1.8309
1.82996
1.83
1.83103
1.83305
1.83602
1.83998
1.84486
1.85068
1.8574
1.86499
1.87345
1.8827
1.89273
1.90352
1.91497
1.92711
1.93983
1.95311
1.9669
1.98111
1.99575
2.01069
2.02591
2.04136
2.05694
2.07264
2.08834
2.10401
2.11961
2.13502
2.15025
2.16518
2.17978
2.194
2.20775
2.22101
2.23371
2.2458
2.25726
2.26799
2.27801
2.28723
2.29564
2.3032
2.30987
2.31566
2.32049
2.3244
2.32733
2.3293
2.33028
2.33026
2.32928
2.32729
2.32434
2.32043
2.31556
2.30979
2.30309
2.29552
2.28711
2.27786
2.26785
2.25709
2.24563
2.23353
2.2208
2.20754
2.19376
2.17954
2.16493
2.14997
2.13475
2.11932
2.10373
2.08804
2.07233
2.05665
2.04106
2.02563
2.01041
1.99547
1.98087
1.96665
1.95289
1.93963
1.92692
1.91482
1.90337
1.89262
1.88261
1.87338
1.86497
1.8574
1.85072
1.84494
1.84009
1.83618
1.83324
1.83128
1.83029
1.8303
1.83128
1.83326
1.8362
1.84011
1.84496
1.85075
1.85744
1.865
1.87342
1.88266
1.89267
1.90342
1.91487
1.92698
1.93969
1.95295
1.96672
1.98094
1.99554
2.01048
2.0257
2.04114
2.05673
2.07241
2.08812
2.10381
2.1194
2.13484
2.15006
2.16501
2.17962
2.19384
2.20762
2.22088
2.23361
2.24571
2.25718
2.26795
2.27796
2.28722
2.29564
2.30321
2.30992
2.3157
2.32058
2.32449
2.32745
2.32944
2.33043
2.33046
2.32948
2.32753
2.32461
2.32071
2.31588
2.31011
2.30344
2.29589
2.28748
2.27828
2.26827
2.25754
2.2461
2.23402
2.22133
2.20807
2.19433
2.18013
2.16554
2.15062
2.13541
2.12
2.10442
2.08875
2.07305
2.05737
2.0418
2.02636
2.01115
1.99622
1.98159
1.96739
1.95361
1.94034
1.92763
1.9155
1.90404
1.89326
1.88323
1.87399
1.86553
1.85795
1.85122
1.84541
1.84052
1.83657
1.83359
1.83157
1.83053
1.83048
1.83141
1.83334
1.83622
1.84009
1.8449
1.85064
1.85731
1.86484
1.87327
1.88249
1.89251
1.90329
1.91476
1.92691
1.93964
1.95294
1.96675
1.98097
1.9956
2.01054
2.02575
2.04118
2.05673
2.07239
2.08807
2.10372
2.11929
2.13469
2.1499
2.16484
2.17945
2.19367
2.20743
2.2207
2.23339
2.24547
2.25689
2.2676
2.2776
2.28679
2.29521
2.30279
2.30948
2.3153
2.32016
2.32408
2.32701
2.32897
2.32994
2.32991
2.32892
2.32696
2.32402
2.32014
2.31531
2.30955
2.30286
2.2953
2.2869
2.27767
2.26771
2.25701
2.24562
2.23359
2.22092
2.2077
2.194
2.17984
2.1653
2.15041
2.13519
2.11972
2.10408
2.08809
2.07334
2.05482
2.04538
2.01644
2.02832
1.96013
2.04508
1.85132
2.14789
1.61832
2.42977
1.15289
3.00395
0.359997
3.91874
-0.724158
5.02073
-1.80428
5.87357
-2.33348
5.88771
-1.77403
4.68435
-0.00867463
2.45164
-0.0143444
-2.4666
2.20926
-4.23518
3.41967
-4.79275
3.41013
-4.26247
2.56026
-3.18175
1.46024
-2.09711
0.546484
-1.30396
-0.0271398
-0.838338
-0.30878
-0.605223
-0.411394
-0.496221
-0.427992
-0.439881
-0.410965
-0.401582
-0.382948
-0.368111
-0.352147
-0.336463
-0.320972
-0.305718
-0.290739
-0.276143
-0.261938
-0.248198
-0.234994
-0.222305
-0.210251
-0.198828
-0.188104
-0.178142
-0.16894
-0.160561
-0.153017
-0.146341
-0.140588
-0.135738
-0.131853
-0.128923
-0.126963
-0.126004
-0.126004
-0.127007
-0.128991
-0.131934
-0.135855
-0.14071
-0.14652
-0.15322
-0.160804
-0.169245
-0.178477
-0.188514
-0.199259
-0.210719
-0.222823
-0.23552
-0.248786
-0.262546
-0.276774
-0.291387
-0.306327
-0.32156
-0.336978
-0.352571
-0.368247
-0.383941
-0.399628
-0.41519
-0.430623
-0.445843
-0.460783
-0.475412
-0.489632
-0.503424
-0.516715
-0.529443
-0.541585
-0.553059
-0.563846
-0.573879
-0.583121
-0.591548
-0.599105
-0.605783
-0.611545
-0.616365
-0.620251
-0.623149
-0.625091
-0.626035
-0.625993
-0.624969
-0.622953
-0.619979
-0.616025
-0.61114
-0.605322
-0.598594
-0.591008
-0.582551
-0.573298
-0.563261
-0.552474
-0.541015
-0.528878
-0.516162
-0.502883
-0.489093
-0.474878
-0.460248
-0.445309
-0.430082
-0.414636
-0.399059
-0.383361
-0.367657
-0.351974
-0.336387
-0.320971
-0.30574
-0.290818
-0.276213
-0.261998
-0.248253
-0.234985
-0.222291
-0.210198
-0.198743
-0.18801
-0.177994
-0.168776
-0.160362
-0.1528
-0.146124
-0.14034
-0.135503
-0.131595
-0.128665
-0.126704
-0.125719
-0.125736
-0.126717
-0.128699
-0.131646
-0.135552
-0.140421
-0.146203
-0.152902
-0.160479
-0.168896
-0.178145
-0.188157
-0.198919
-0.21038
-0.222485
-0.235207
-0.248465
-0.26224
-0.276454
-0.291064
-0.306015
-0.321231
-0.336668
-0.352256
-0.367939
-0.383653
-0.399335
-0.414924
-0.430357
-0.445574
-0.460516
-0.475122
-0.489336
-0.503102
-0.516366
-0.529072
-0.54118
-0.552629
-0.563383
-0.573391
-0.582621
-0.591034
-0.598597
-0.605281
-0.611059
-0.615909
-0.619811
-0.622749
-0.624714
-0.625697
-0.625695
-0.624707
-0.622737
-0.619794
-0.615888
-0.611034
-0.605253
-0.598564
-0.590997
-0.58258
-0.573346
-0.563332
-0.552577
-0.541124
-0.529018
-0.516307
-0.503042
-0.489274
-0.475057
-0.46045
-0.445508
-0.430291
-0.414858
-0.399269
-0.383586
-0.367871
-0.352185
-0.336593
-0.321152
-0.305931
-0.290978
-0.276368
-0.262145
-0.248366
-0.235108
-0.222377
-0.210276
-0.198815
-0.188042
-0.178034
-0.168775
-0.160356
-0.152779
-0.146069
-0.140288
-0.135409
-0.131497
-0.128542
-0.12655
-0.125562
-0.125534
-0.126514
-0.128465
-0.131385
-0.135287
-0.140111
-0.145888
-0.152553
-0.160105
-0.168513
-0.177719
-0.187731
-0.198452
-0.209897
-0.221982
-0.234662
-0.247923
-0.261656
-0.275861
-0.290455
-0.305369
-0.320587
-0.335991
-0.351575
-0.367248
-0.382937
-0.398626
-0.414191
-0.429629
-0.444847
-0.459773
-0.474398
-0.488598
-0.502379
-0.515655
-0.528365
-0.540495
-0.551948
-0.562728
-0.572762
-0.58201
-0.590463
-0.598049
-0.604774
-0.610591
-0.615476
-0.619434
-0.622409
-0.624433
-0.625462
-0.625512
-0.624582
-0.622653
-0.619772
-0.6159
-0.611092
-0.605347
-0.598679
-0.591141
-0.582714
-0.57349
-0.563465
-0.552688
-0.541222
-0.529075
-0.516343
-0.50305
-0.489248
-0.475027
-0.460393
-0.445456
-0.430243
-0.414813
-0.399258
-0.38359
-0.367913
-0.352255
-0.33669
-0.321283
-0.306069
-0.291144
-0.276536
-0.262317
-0.248567
-0.235299
-0.22261
-0.210528
-0.199097
-0.188387
-0.178387
-0.169184
-0.160772
-0.1532
-0.146504
-0.140696
-0.13584
-0.131915
-0.128981
-0.12702
-0.126047
-0.126065
-0.127052
-0.129025
-0.131957
-0.135842
-0.140693
-0.146448
-0.153132
-0.16069
-0.169084
-0.178303
-0.188268
-0.198969
-0.210363
-0.222407
-0.235073
-0.248281
-0.261998
-0.276152
-0.2907
-0.305614
-0.32082
-0.336281
-0.351922
-0.367976
-0.382635
-0.401215
-0.41062
-0.439567
-0.427672
-0.495876
-0.410975
-0.604726
-0.30825
-0.837777
-0.0265486
-1.30334
0.547176
-2.09642
1.46101
-3.18092
2.56121
-4.26145
3.41126
-4.79124
3.42143
-4.23232
2.21386
-2.46213
-0.0124094
4.67665
2.20851
6.89665
0.438098
8.10028
-0.121017
8.08564
0.408046
7.23179
1.48755
6.12923
2.57114
5.21421
3.36354
4.63997
3.82875
4.35812
4.06167
4.2554
4.17053
4.23875
4.22688
4.2558
4.26525
4.2838
4.29855
4.3146
4.33024
4.34575
4.36099
4.37597
4.39057
4.40477
4.41852
4.43173
4.44442
4.45648
4.46789
4.47862
4.48858
4.49779
4.50617
4.51372
4.52039
4.52614
4.53099
4.53487
4.5378
4.53976
4.54073
4.54073
4.53972
4.53774
4.53479
4.53086
4.52601
4.52021
4.51351
4.50593
4.49749
4.48826
4.47821
4.46747
4.45601
4.44391
4.43122
4.41795
4.4042
4.38997
4.37536
4.36042
4.34518
4.32976
4.31416
4.29848
4.28279
4.2671
4.25153
4.23609
4.22088
4.20594
4.19131
4.17709
4.1633
4.15002
4.13729
4.12514
4.11368
4.1029
4.09287
4.08363
4.0752
4.06765
4.06097
4.0552
4.05038
4.04649
4.04359
4.04165
4.04071
4.04075
4.04177
4.04379
4.04676
4.05071
4.0556
4.06141
4.06814
4.07573
4.08419
4.09344
4.10347
4.11426
4.12571
4.13785
4.15057
4.16384
4.17764
4.19185
4.20648
4.22142
4.23665
4.2521
4.26767
4.28338
4.29907
4.31475
4.33035
4.34576
4.36099
4.37592
4.39052
4.40474
4.41848
4.43175
4.44445
4.45654
4.468
4.47873
4.48875
4.49797
4.50638
4.51394
4.52062
4.5264
4.53123
4.53515
4.53808
4.54004
4.54102
4.54101
4.54002
4.53804
4.53509
4.53118
4.52631
4.52053
4.51383
4.50626
4.49785
4.4886
4.4786
4.46783
4.45637
4.44427
4.43154
4.41829
4.4045
4.39028
4.37567
4.36072
4.3455
4.33006
4.31447
4.29879
4.28308
4.2674
4.25181
4.23638
4.22116
4.20622
4.19161
4.1774
4.16364
4.15037
4.13767
4.12557
4.11412
4.10337
4.09336
4.08413
4.07571
4.06815
4.06146
4.05569
4.05083
4.04693
4.04399
4.04202
4.04104
4.04104
4.04203
4.044
4.04695
4.05085
4.05571
4.06149
4.06818
4.07575
4.08417
4.0934
4.10342
4.11417
4.12562
4.13773
4.15044
4.1637
4.17747
4.19169
4.20629
4.22123
4.23645
4.25189
4.26747
4.28315
4.29887
4.31456
4.33015
4.34558
4.3608
4.37575
4.39037
4.40459
4.41836
4.43162
4.44435
4.45646
4.46792
4.47869
4.48871
4.49796
4.50638
4.51396
4.52067
4.52645
4.53133
4.53524
4.5382
4.54019
4.54118
4.54121
4.54023
4.53828
4.53536
4.53146
4.52663
4.52085
4.51419
4.50664
4.49823
4.48902
4.47901
4.46829
4.45685
4.44476
4.43208
4.41881
4.40508
4.39087
4.37628
4.36137
4.34615
4.33074
4.31516
4.29948
4.28379
4.2681
4.25254
4.2371
4.22188
4.20696
4.19233
4.17813
4.16435
4.15108
4.13836
4.12624
4.11478
4.10401
4.09397
4.08473
4.07627
4.06869
4.06196
4.05615
4.05126
4.0473
4.04433
4.04231
4.04128
4.04123
4.04216
4.04409
4.04697
4.05085
4.05565
4.0614
4.06808
4.07561
4.08403
4.09326
4.10328
4.11406
4.12552
4.13766
4.1504
4.16369
4.17749
4.19171
4.20634
4.22128
4.23649
4.25191
4.26747
4.28314
4.29882
4.31448
4.33005
4.34545
4.36067
4.37559
4.3902
4.40442
4.41817
4.43144
4.44412
4.45621
4.46764
4.47835
4.48836
4.49756
4.50598
4.51355
4.52024
4.52604
4.53089
4.53481
4.53774
4.5397
4.54069
4.54067
4.53969
4.53771
4.53478
4.53089
4.52604
4.52029
4.5136
4.50605
4.49766
4.48844
4.47848
4.46777
4.45636
4.44432
4.43165
4.41845
4.40473
4.39058
4.37602
4.3611
4.34591
4.33046
4.31488
4.29866
4.2841
4.26551
4.25611
4.2272
4.2391
4.17092
4.25582
4.06212
4.35863
3.82928
4.64057
3.36417
5.21487
2.57184
6.13001
1.48839
7.23271
0.409083
8.08681
-0.119521
8.10193
0.440355
6.8988
2.20965
4.67717
-1.78725
-4.24336
0.432942
-6.01037
1.63899
-6.56759
1.63019
-6.03697
0.782058
-4.95621
-0.316564
-3.87168
-1.22934
-3.07867
-1.80247
-2.61315
-2.08383
-2.38007
-2.18635
-2.27112
-2.20292
-2.21474
-2.18583
-2.1764
-2.15781
-2.14315
-2.12698
-2.11139
-2.0959
-2.08065
-2.06568
-2.05108
-2.03688
-2.02314
-2.00991
-1.99723
-1.98516
-1.97376
-1.96303
-1.95308
-1.94385
-1.93547
-1.92792
-1.92124
-1.91549
-1.91066
-1.90678
-1.90384
-1.90188
-1.90092
-1.90091
-1.90192
-1.90391
-1.90686
-1.91079
-1.91563
-1.92143
-1.92813
-1.93572
-1.94416
-1.95339
-1.96343
-1.97417
-1.98563
-1.99774
-2.01044
-2.0237
-2.03747
-2.05169
-2.0663
-2.08124
-2.09647
-2.11189
-2.12748
-2.14315
-2.15884
-2.17454
-2.1901
-2.20554
-2.22076
-2.23571
-2.25034
-2.26456
-2.27835
-2.29164
-2.30436
-2.3165
-2.32797
-2.33874
-2.34877
-2.35801
-2.36644
-2.37399
-2.38068
-2.38644
-2.39127
-2.39516
-2.39805
-2.4
-2.40094
-2.4009
-2.39987
-2.39786
-2.39489
-2.39094
-2.38605
-2.38023
-2.37351
-2.36591
-2.35747
-2.34821
-2.33817
-2.32739
-2.31593
-2.30379
-2.29108
-2.2778
-2.26401
-2.2498
-2.23516
-2.22022
-2.205
-2.18955
-2.17397
-2.15828
-2.14257
-2.12689
-2.1113
-2.09588
-2.08065
-2.06573
-2.05113
-2.03691
-2.02317
-2.0099
-1.99721
-1.98511
-1.97366
-1.96293
-1.95291
-1.94369
-1.93528
-1.92771
-1.92104
-1.91526
-1.91042
-1.90651
-1.90358
-1.90162
-1.90064
-1.90065
-1.90163
-1.90361
-1.90656
-1.91047
-1.91534
-1.92112
-1.92782
-1.93539
-1.94381
-1.95306
-1.96307
-1.97383
-1.98529
-1.99739
-2.01012
-2.02338
-2.03715
-2.05137
-2.06598
-2.08092
-2.09614
-2.11158
-2.12717
-2.14285
-2.15856
-2.17424
-2.18983
-2.20527
-2.22048
-2.23542
-2.25003
-2.26424
-2.27801
-2.29127
-2.30398
-2.31609
-2.32754
-2.33829
-2.3483
-2.35753
-2.36594
-2.3735
-2.38019
-2.38597
-2.39082
-2.39472
-2.39766
-2.39962
-2.40061
-2.4006
-2.39961
-2.39764
-2.3947
-2.3908
-2.38594
-2.38016
-2.37347
-2.3659
-2.35749
-2.34825
-2.33824
-2.32748
-2.31603
-2.30392
-2.29121
-2.27795
-2.26418
-2.24996
-2.23536
-2.22041
-2.2052
-2.18976
-2.17417
-2.15849
-2.14278
-2.12709
-2.1115
-2.09606
-2.08084
-2.06589
-2.05128
-2.03706
-2.02328
-2.01002
-1.9973
-1.98519
-1.97373
-1.96296
-1.95294
-1.94369
-1.93526
-1.92769
-1.92098
-1.9152
-1.91032
-1.90641
-1.90345
-1.90146
-1.90047
-1.90044
-1.90142
-1.90337
-1.9063
-1.9102
-1.91502
-1.9208
-1.92746
-1.93502
-1.94343
-1.95263
-1.96264
-1.97336
-1.98481
-1.99689
-2.00957
-2.02283
-2.03657
-2.05077
-2.06537
-2.08028
-2.0955
-2.1109
-2.12649
-2.14216
-2.15785
-2.17354
-2.18911
-2.20454
-2.21976
-2.2347
-2.24931
-2.26352
-2.27729
-2.29056
-2.30328
-2.3154
-2.32686
-2.33764
-2.34767
-2.35692
-2.36537
-2.37296
-2.37968
-2.3855
-2.39039
-2.39434
-2.39732
-2.39934
-2.40037
-2.40042
-2.39948
-2.39756
-2.39467
-2.3908
-2.38599
-2.38024
-2.37356
-2.36602
-2.3576
-2.34838
-2.33835
-2.32758
-2.31611
-2.30397
-2.29125
-2.27795
-2.26416
-2.24994
-2.23532
-2.22038
-2.20517
-2.18974
-2.17418
-2.1585
-2.14282
-2.12715
-2.11158
-2.09618
-2.08097
-2.06604
-2.05144
-2.03723
-2.02348
-2.01022
-1.99753
-1.98544
-1.97401
-1.96329
-1.95329
-1.94408
-1.93566
-1.9281
-1.92141
-1.9156
-1.91076
-1.90684
-1.9039
-1.90194
-1.90096
-1.90097
-1.90194
-1.90392
-1.90686
-1.91075
-1.91559
-1.92136
-1.92803
-1.93559
-1.94397
-1.95319
-1.96316
-1.97387
-1.98527
-1.99731
-2.01
-2.0232
-2.03691
-2.05107
-2.06563
-2.08055
-2.09575
-2.11121
-2.12675
-2.14297
-2.15756
-2.17615
-2.18554
-2.21444
-2.20257
-2.27074
-2.18592
-2.37961
-2.08333
-2.61263
-1.80189
-3.07809
-1.22869
-3.87102
-0.315831
-4.95542
0.782877
-6.03603
1.63118
-6.56636
1.64019
-6.00889
0.434106
-4.24271
-1.78721
5.86721
3.40272
8.08709
1.63123
9.2875
1.0704
9.27137
1.59805
8.41716
2.67627
7.31475
3.75879
6.40001
4.55049
5.82599
5.01527
5.54424
5.248
5.44158
5.3568
5.42496
5.41312
5.44202
5.45145
5.47003
5.48465
5.50085
5.5164
5.5319
5.54715
5.56213
5.57673
5.59093
5.60467
5.6179
5.63059
5.64265
5.65405
5.66478
5.67474
5.68396
5.69235
5.6999
5.70657
5.71231
5.71715
5.72103
5.72397
5.72594
5.7269
5.7269
5.72589
5.72391
5.72096
5.71703
5.71219
5.70638
5.69969
5.6921
5.68367
5.67443
5.66439
5.65365
5.64219
5.63008
5.61739
5.60412
5.59036
5.57614
5.56152
5.54658
5.53136
5.51594
5.50034
5.48467
5.46897
5.45328
5.43771
5.42227
5.40704
5.3921
5.37747
5.36325
5.34947
5.33619
5.32346
5.31133
5.29986
5.28909
5.27906
5.26983
5.2614
5.25384
5.24716
5.24139
5.23658
5.23268
5.22977
5.22784
5.22689
5.22693
5.22795
5.22997
5.23294
5.23689
5.24178
5.24759
5.25432
5.26191
5.27036
5.27961
5.28965
5.30043
5.31189
5.32402
5.33674
5.35002
5.3638
5.37802
5.39265
5.40759
5.42282
5.43827
5.45385
5.46955
5.48524
5.50093
5.51652
5.53194
5.54716
5.56209
5.5767
5.59091
5.60466
5.61793
5.63062
5.64272
5.65417
5.66491
5.67493
5.68414
5.69256
5.70012
5.70679
5.71258
5.71742
5.72132
5.72425
5.72622
5.7272
5.72718
5.72619
5.72421
5.72126
5.71735
5.71248
5.7067
5.70001
5.69243
5.68402
5.67477
5.66477
5.654
5.64255
5.63044
5.61772
5.60446
5.59068
5.57646
5.56185
5.5469
5.53168
5.51625
5.50066
5.48497
5.46926
5.45358
5.43799
5.42256
5.40734
5.3924
5.3778
5.36358
5.34982
5.33656
5.32385
5.31175
5.3003
5.28955
5.27954
5.27031
5.26189
5.25433
5.24765
5.24187
5.23701
5.23311
5.23017
5.2282
5.22722
5.22722
5.22821
5.23018
5.23313
5.23704
5.24189
5.24768
5.25437
5.26193
5.27035
5.27959
5.2896
5.30035
5.3118
5.32391
5.33662
5.34989
5.36365
5.37787
5.39248
5.40742
5.42263
5.43807
5.45366
5.46934
5.48505
5.50074
5.51633
5.53177
5.54699
5.56193
5.57655
5.59076
5.60454
5.61781
5.63053
5.64263
5.6541
5.66487
5.67489
5.68414
5.69257
5.70014
5.70684
5.71263
5.71751
5.72142
5.72438
5.72637
5.72736
5.72739
5.72641
5.72446
5.72154
5.71764
5.71281
5.70703
5.70037
5.69282
5.6844
5.6752
5.66519
5.65447
5.64302
5.63094
5.61825
5.60499
5.59126
5.57705
5.56245
5.54754
5.53232
5.51692
5.50133
5.48566
5.46997
5.45428
5.43871
5.42327
5.40805
5.39312
5.3785
5.36429
5.35052
5.33725
5.32454
5.31241
5.30096
5.29018
5.28015
5.2709
5.26245
5.25486
5.24814
5.24233
5.23744
5.23349
5.23051
5.22849
5.22746
5.22741
5.22835
5.23028
5.23317
5.23704
5.24185
5.24761
5.25427
5.26182
5.27023
5.27946
5.28949
5.30025
5.31172
5.32386
5.33658
5.34987
5.36367
5.37789
5.39251
5.40745
5.42265
5.43808
5.45365
5.46932
5.48501
5.50067
5.51624
5.53165
5.54686
5.56179
5.57639
5.5906
5.60435
5.6176
5.6303
5.64238
5.65382
5.66454
5.67454
5.68376
5.69217
5.69974
5.70643
5.71223
5.71707
5.72099
5.72392
5.72588
5.72686
5.72685
5.72588
5.7239
5.72097
5.71707
5.71223
5.70646
5.69979
5.69224
5.68385
5.67463
5.66467
5.65395
5.64255
5.63051
5.61782
5.60462
5.59091
5.57675
5.56218
5.54726
5.53206
5.5166
5.50106
5.48487
5.47026
5.45169
5.4423
5.41342
5.4253
5.35718
5.442
5.24844
5.54473
5.01577
5.82654
4.55106
6.40063
3.75944
7.31545
2.67702
8.41793
1.59891
9.27226
1.07143
9.2885
1.63236
8.08792
3.40331
5.86703
-2.36365
-4.8196
-0.143972
-6.58496
1.06074
-7.14175
1.05157
-6.6112
0.203833
-5.53083
-0.894079
-4.44683
-1.80621
-3.65424
-2.37892
-3.189
-2.66007
-2.95607
-2.7625
-2.84717
-2.77902
-2.79083
-2.76192
-2.7525
-2.73391
-2.71932
-2.70309
-2.68756
-2.67206
-2.65681
-2.64185
-2.62724
-2.61304
-2.59929
-2.58606
-2.57338
-2.56132
-2.54992
-2.53919
-2.52923
-2.52
-2.51162
-2.50407
-2.49739
-2.49166
-2.48682
-2.48293
-2.48
-2.47802
-2.47708
-2.47706
-2.47808
-2.48007
-2.48302
-2.48695
-2.49178
-2.49759
-2.50428
-2.51187
-2.52031
-2.52954
-2.53958
-2.55032
-2.56178
-2.57389
-2.58659
-2.59985
-2.61362
-2.62784
-2.64245
-2.6574
-2.67261
-2.68804
-2.70362
-2.71929
-2.73499
-2.75068
-2.76625
-2.7817
-2.79693
-2.81187
-2.8265
-2.84072
-2.8545
-2.86778
-2.88051
-2.89265
-2.90411
-2.91488
-2.9249
-2.93414
-2.94257
-2.95013
-2.95681
-2.96257
-2.9674
-2.97129
-2.97419
-2.97614
-2.97708
-2.97704
-2.97602
-2.97401
-2.97103
-2.96708
-2.96219
-2.95638
-2.94966
-2.94206
-2.93361
-2.92436
-2.91432
-2.90354
-2.89207
-2.87995
-2.86722
-2.85395
-2.84017
-2.82594
-2.81132
-2.79637
-2.78115
-2.7657
-2.75012
-2.73443
-2.71872
-2.70304
-2.68745
-2.67203
-2.6568
-2.64188
-2.62728
-2.61306
-2.59932
-2.58605
-2.57336
-2.56126
-2.54981
-2.53908
-2.52906
-2.51984
-2.51143
-2.50386
-2.49719
-2.49141
-2.48657
-2.48266
-2.47973
-2.47777
-2.47679
-2.4768
-2.47778
-2.47976
-2.48271
-2.48662
-2.49149
-2.49727
-2.50396
-2.51154
-2.51996
-2.5292
-2.53922
-2.54998
-2.56143
-2.57354
-2.58626
-2.59952
-2.6133
-2.62751
-2.64213
-2.65707
-2.67229
-2.68772
-2.70331
-2.71899
-2.73471
-2.75039
-2.76598
-2.78141
-2.79663
-2.81157
-2.82617
-2.84039
-2.85415
-2.86741
-2.88012
-2.89223
-2.90368
-2.91443
-2.92444
-2.93367
-2.94208
-2.94964
-2.95633
-2.9621
-2.96696
-2.97086
-2.9738
-2.97576
-2.97675
-2.97674
-2.97576
-2.97379
-2.97084
-2.96693
-2.96208
-2.9563
-2.94961
-2.94204
-2.93363
-2.92439
-2.91438
-2.90362
-2.89217
-2.88006
-2.86735
-2.85408
-2.84032
-2.8261
-2.81149
-2.79655
-2.78134
-2.7659
-2.75031
-2.73463
-2.71892
-2.70323
-2.68764
-2.67221
-2.65698
-2.64204
-2.62742
-2.6132
-2.59943
-2.58616
-2.57344
-2.56134
-2.54988
-2.5391
-2.52909
-2.51983
-2.51141
-2.50383
-2.49713
-2.49134
-2.48647
-2.48255
-2.4796
-2.47761
-2.47661
-2.47659
-2.47757
-2.47952
-2.48244
-2.48634
-2.49117
-2.49694
-2.50361
-2.51116
-2.51957
-2.52877
-2.53879
-2.54951
-2.56095
-2.57304
-2.58572
-2.59898
-2.61271
-2.62692
-2.64151
-2.65643
-2.67165
-2.68705
-2.70263
-2.71831
-2.734
-2.74969
-2.76526
-2.78069
-2.79591
-2.81085
-2.82546
-2.83967
-2.85344
-2.86671
-2.87942
-2.89155
-2.903
-2.91378
-2.92382
-2.93306
-2.94152
-2.9491
-2.95583
-2.96165
-2.96653
-2.97048
-2.97346
-2.97548
-2.97651
-2.97656
-2.97562
-2.97369
-2.9708
-2.96693
-2.96211
-2.95636
-2.94969
-2.94214
-2.93373
-2.9245
-2.91448
-2.9037
-2.89224
-2.88011
-2.86738
-2.85409
-2.8403
-2.82608
-2.81147
-2.79653
-2.78132
-2.76589
-2.75032
-2.73465
-2.71895
-2.70329
-2.68772
-2.67231
-2.6571
-2.64218
-2.62758
-2.61337
-2.59962
-2.58637
-2.57368
-2.56159
-2.55016
-2.53943
-2.52943
-2.52022
-2.5118
-2.50423
-2.49754
-2.49174
-2.48691
-2.48298
-2.48006
-2.47809
-2.4771
-2.47711
-2.47808
-2.48006
-2.483
-2.48689
-2.49174
-2.49749
-2.50418
-2.51172
-2.52011
-2.52933
-2.53929
-2.55001
-2.56142
-2.57346
-2.58614
-2.59934
-2.61306
-2.62722
-2.64178
-2.6567
-2.67191
-2.68737
-2.70289
-2.71911
-2.73369
-2.75228
-2.76166
-2.79054
-2.77869
-2.84681
-2.76209
-2.95564
-2.6596
-3.18852
-2.37839
-3.65371
-1.80561
-4.44623
-0.893403
-5.53017
0.204559
-6.61048
1.05234
-7.14092
1.06156
-6.5841
-0.143386
-4.81915
-2.36385
5.83207
3.37161
8.05108
1.60133
9.25024
1.04011
9.23392
1.56676
8.38031
2.64384
7.27871
3.72543
6.36464
4.51649
5.79102
4.98091
5.50947
5.21346
5.40688
5.3222
5.3903
5.37848
5.40737
5.41677
5.43535
5.44993
5.46617
5.48169
5.49719
5.51243
5.52739
5.54201
5.55621
5.56996
5.58319
5.59586
5.60792
5.61933
5.63005
5.64002
5.64924
5.65762
5.66517
5.67185
5.67758
5.68243
5.68631
5.68925
5.69122
5.69217
5.69218
5.69116
5.68918
5.68623
5.68231
5.67747
5.67167
5.66497
5.65739
5.64895
5.63972
5.62967
5.61893
5.60747
5.59537
5.58267
5.5694
5.55563
5.54141
5.5268
5.51186
5.49664
5.48122
5.46563
5.44996
5.43426
5.41857
5.40299
5.38755
5.37232
5.35738
5.34274
5.32853
5.31475
5.30147
5.28875
5.27662
5.26515
5.25438
5.24436
5.23513
5.2267
5.21914
5.21246
5.20669
5.20188
5.19797
5.19507
5.19313
5.19218
5.19222
5.19324
5.19525
5.19823
5.20218
5.20706
5.21288
5.2196
5.2272
5.23564
5.2449
5.25494
5.26571
5.27718
5.2893
5.30203
5.3153
5.32908
5.34331
5.35793
5.37288
5.3881
5.40355
5.41913
5.43483
5.45053
5.46621
5.4818
5.49722
5.51245
5.52737
5.54198
5.55619
5.56994
5.58321
5.59591
5.608
5.61946
5.63019
5.64021
5.64942
5.65784
5.6654
5.67208
5.67786
5.6827
5.6866
5.68953
5.6915
5.69248
5.69247
5.69148
5.6895
5.68655
5.68264
5.67777
5.67199
5.66529
5.65772
5.6493
5.64006
5.63005
5.61928
5.60783
5.59573
5.58301
5.56974
5.55596
5.54175
5.52713
5.51219
5.49697
5.48153
5.46595
5.45026
5.43455
5.41887
5.40328
5.38785
5.37263
5.35769
5.34308
5.32887
5.31511
5.30185
5.28914
5.27704
5.26559
5.25484
5.24483
5.2356
5.22719
5.21962
5.21294
5.20716
5.20231
5.1984
5.19546
5.19349
5.19251
5.19251
5.1935
5.19547
5.19842
5.20233
5.20718
5.21297
5.21966
5.22723
5.23564
5.24488
5.25489
5.26564
5.2771
5.2892
5.30191
5.31518
5.32895
5.34316
5.35777
5.37271
5.38793
5.40336
5.41895
5.43463
5.45035
5.46603
5.48162
5.49705
5.51228
5.52722
5.54184
5.55605
5.56983
5.5831
5.59581
5.60792
5.61938
5.63016
5.64017
5.64943
5.65785
5.66543
5.67213
5.67792
5.68279
5.68671
5.68967
5.69165
5.69265
5.69267
5.6917
5.68975
5.68682
5.68292
5.6781
5.67232
5.66565
5.6581
5.64969
5.64049
5.63048
5.61976
5.60831
5.59622
5.58354
5.57028
5.55654
5.54234
5.52774
5.51282
5.4976
5.4822
5.46661
5.45094
5.43525
5.41956
5.40399
5.38855
5.37334
5.3584
5.34379
5.32958
5.31581
5.30254
5.28983
5.2777
5.26625
5.25547
5.24544
5.23619
5.22774
5.22015
5.21343
5.20761
5.20273
5.19878
5.1958
5.19378
5.19275
5.19271
5.19365
5.19557
5.19847
5.20234
5.20716
5.21291
5.21958
5.22713
5.23554
5.24477
5.25479
5.26556
5.27702
5.28916
5.30188
5.31517
5.32896
5.34317
5.35779
5.37273
5.38795
5.40337
5.41894
5.43461
5.4503
5.46597
5.48154
5.49695
5.51216
5.52709
5.54168
5.55588
5.56964
5.58289
5.59559
5.60767
5.61911
5.62984
5.63984
5.64906
5.65747
5.66504
5.67172
5.67752
5.68236
5.68627
5.6892
5.69117
5.69216
5.69214
5.69117
5.6892
5.68625
5.68237
5.67751
5.67177
5.66508
5.65753
5.64915
5.63993
5.62997
5.61925
5.60784
5.5958
5.58311
5.56991
5.55619
5.54203
5.52746
5.51254
5.49733
5.48187
5.46637
5.45014
5.43557
5.417
5.40762
5.37876
5.39062
5.32255
5.40728
5.21388
5.50992
4.98137
5.79153
4.517
6.36519
3.72598
7.27933
2.64445
8.38096
1.56739
9.23456
1.04077
9.25085
1.60191
8.0515
3.37192
5.83194
-1.85923
-4.31443
0.360008
-6.07924
1.56352
-6.63604
1.55338
-6.10598
0.705323
-5.02639
-0.392431
-3.94317
-1.30427
-3.15118
-1.87673
-2.68632
-2.15777
-2.45357
-2.26014
-2.34475
-2.27665
-2.28845
-2.25956
-2.25017
-2.23157
-2.21701
-2.20076
-2.18526
-2.16976
-2.15452
-2.13955
-2.12494
-2.11074
-2.09699
-2.08376
-2.07109
-2.05903
-2.04763
-2.0369
-2.02693
-2.01772
-2.00933
-2.00179
-1.99511
-1.98938
-1.98453
-1.98065
-1.97771
-1.97573
-1.97479
-1.97478
-1.9758
-1.97779
-1.98073
-1.98466
-1.98949
-1.9953
-2.00199
-2.00958
-2.01802
-2.02725
-2.03729
-2.04802
-2.05948
-2.07158
-2.08429
-2.09756
-2.11133
-2.12555
-2.14016
-2.1551
-2.17032
-2.18574
-2.20132
-2.217
-2.2327
-2.24839
-2.26397
-2.27941
-2.29464
-2.30959
-2.32421
-2.33843
-2.35221
-2.36549
-2.37821
-2.39034
-2.4018
-2.41257
-2.42259
-2.43183
-2.44025
-2.44781
-2.45449
-2.46026
-2.46508
-2.46899
-2.47188
-2.47383
-2.47477
-2.47474
-2.47372
-2.4717
-2.46873
-2.46478
-2.45989
-2.45408
-2.44736
-2.43976
-2.43131
-2.42206
-2.41202
-2.40124
-2.38977
-2.37765
-2.36493
-2.35165
-2.33787
-2.32365
-2.30902
-2.29408
-2.27885
-2.26341
-2.24783
-2.23213
-2.21643
-2.20075
-2.18515
-2.16974
-2.15451
-2.13959
-2.12498
-2.11077
-2.09702
-2.08375
-2.07106
-2.05897
-2.04751
-2.03678
-2.02676
-2.01755
-2.00913
-2.00157
-1.99489
-1.98911
-1.98427
-1.98037
-1.97743
-1.97547
-1.97449
-1.9745
-1.97549
-1.97747
-1.98042
-1.98432
-1.98919
-1.99497
-2.00167
-2.00924
-2.01766
-2.02691
-2.03692
-2.04768
-2.05913
-2.07124
-2.08396
-2.09722
-2.111
-2.12521
-2.13983
-2.15477
-2.16999
-2.18542
-2.20101
-2.21669
-2.23241
-2.24809
-2.26368
-2.27911
-2.29433
-2.30927
-2.32387
-2.33809
-2.35185
-2.36511
-2.37782
-2.38992
-2.40137
-2.41212
-2.42213
-2.43136
-2.43977
-2.44734
-2.45402
-2.4598
-2.46465
-2.46855
-2.47149
-2.47346
-2.47444
-2.47444
-2.47345
-2.47148
-2.46854
-2.46463
-2.45977
-2.45399
-2.4473
-2.43973
-2.43132
-2.42208
-2.41207
-2.40132
-2.38986
-2.37776
-2.36504
-2.35178
-2.33801
-2.32379
-2.30919
-2.29425
-2.27903
-2.2636
-2.24801
-2.23233
-2.21661
-2.20093
-2.18534
-2.1699
-2.15468
-2.13974
-2.12512
-2.1109
-2.09713
-2.08386
-2.07114
-2.05903
-2.04757
-2.03681
-2.02679
-2.01754
-2.00911
-2.00153
-1.99483
-1.98904
-1.98417
-1.98025
-1.9773
-1.97531
-1.97431
-1.97429
-1.97527
-1.97722
-1.98014
-1.98404
-1.98887
-1.99464
-2.00131
-2.00886
-2.01727
-2.02647
-2.03649
-2.04721
-2.05865
-2.07074
-2.08342
-2.09668
-2.11042
-2.12462
-2.13922
-2.15413
-2.16935
-2.18475
-2.20034
-2.21601
-2.23171
-2.24739
-2.26296
-2.2784
-2.29362
-2.30855
-2.32316
-2.33737
-2.35114
-2.36441
-2.37712
-2.38925
-2.4007
-2.41148
-2.42151
-2.43076
-2.43921
-2.4468
-2.45352
-2.45934
-2.46423
-2.46818
-2.47116
-2.47317
-2.4742
-2.47425
-2.47331
-2.47138
-2.46848
-2.46461
-2.45979
-2.45403
-2.44737
-2.43982
-2.4314
-2.42217
-2.41215
-2.40139
-2.38992
-2.37779
-2.36507
-2.35179
-2.338
-2.32378
-2.30917
-2.29423
-2.27901
-2.26359
-2.24801
-2.23235
-2.21665
-2.20099
-2.18541
-2.17
-2.15479
-2.13987
-2.12527
-2.11107
-2.09732
-2.08407
-2.07137
-2.05929
-2.04785
-2.03712
-2.02712
-2.0179
-2.00948
-2.00192
-1.99524
-1.98943
-1.98461
-1.98068
-1.97776
-1.97579
-1.97479
-1.97481
-1.97577
-1.97775
-1.9807
-1.98458
-1.98945
-1.99518
-2.00187
-2.00941
-2.0178
-2.02702
-2.03698
-2.0477
-2.05911
-2.07115
-2.08383
-2.09704
-2.11076
-2.12492
-2.13949
-2.15441
-2.16962
-2.18509
-2.20058
-2.2168
-2.23136
-2.24994
-2.25932
-2.28818
-2.27634
-2.34442
-2.25976
-2.45317
-2.15733
-2.68587
-1.87626
-3.15071
-1.30374
-3.94266
-0.391856
-5.02584
0.705924
-6.10544
1.55395
-6.63551
1.56406
-6.07877
0.360331
-4.31421
-1.85923
4.9507
2.4932
7.16864
0.724716
8.36756
0.163929
8.35188
0.690264
7.49936
1.76676
6.39878
2.84778
5.48542
3.63844
4.91222
4.10261
4.63086
4.33505
4.52836
4.44373
4.51179
4.49997
4.52884
4.53822
4.55681
4.57137
4.58762
4.6031
4.6186
4.63385
4.64881
4.66342
4.67762
4.69137
4.70459
4.71726
4.72932
4.74073
4.75145
4.76142
4.77063
4.77902
4.78656
4.79323
4.79897
4.80383
4.80771
4.81065
4.81262
4.81357
4.81357
4.81256
4.81057
4.80764
4.80371
4.79888
4.79307
4.78637
4.77879
4.77034
4.76112
4.75107
4.74034
4.72888
4.71678
4.70407
4.69081
4.67703
4.66281
4.6482
4.63326
4.61804
4.60262
4.58704
4.57136
4.55567
4.53998
4.52439
4.50895
4.49372
4.47878
4.46415
4.44993
4.43615
4.42288
4.41016
4.39803
4.38657
4.37581
4.36579
4.35655
4.34813
4.34057
4.33389
4.32811
4.32329
4.31938
4.3165
4.31454
4.31359
4.31363
4.31465
4.31666
4.31964
4.32359
4.32848
4.33429
4.34101
4.34861
4.35705
4.36631
4.37635
4.38712
4.39859
4.41071
4.42344
4.43671
4.45049
4.46472
4.47934
4.49428
4.50951
4.52496
4.54053
4.55623
4.57193
4.58762
4.60321
4.61862
4.63385
4.64878
4.66338
4.6776
4.69134
4.70462
4.71731
4.72941
4.74086
4.75159
4.76161
4.77083
4.77924
4.78681
4.79348
4.79927
4.80411
4.80801
4.81094
4.8129
4.81388
4.81387
4.81288
4.8109
4.80795
4.80404
4.79918
4.79339
4.7867
4.77912
4.77071
4.76146
4.75145
4.74069
4.72923
4.71713
4.70441
4.69115
4.67737
4.66316
4.64854
4.6336
4.61838
4.60295
4.58736
4.57168
4.55596
4.54028
4.52469
4.50926
4.49404
4.4791
4.4645
4.45028
4.43652
4.42326
4.41056
4.39845
4.387
4.37625
4.36624
4.35701
4.3486
4.34104
4.33435
4.32857
4.32372
4.31982
4.31688
4.31491
4.31393
4.31393
4.31492
4.31689
4.31983
4.32374
4.3286
4.33438
4.34107
4.34864
4.35706
4.36629
4.3763
4.38706
4.39851
4.41062
4.42333
4.4366
4.45037
4.46458
4.47918
4.49412
4.50934
4.52477
4.54036
4.55605
4.57176
4.58744
4.60303
4.61847
4.63369
4.64863
4.66325