/*--------------------------------*- C++ -*----------------------------------*\
| =========                 |                                                 |
| \\      /  F ield         | OpenFOAM: The Open Source CFD Toolbox           |
|  \\    /   O peration     | Version:  2106                                  |
|   \\  /    A nd           | Website:  www.openfoam.com                      |
|    \\/     M anipulation  |                                                 |
\*---------------------------------------------------------------------------*/
FoamFile
{
    version     2.0;
    format      ascii;
    arch        "LSB;label=32;scalar=64";
    class       surfaceScalarField;
    location    "0.006";
    object      phi;
}
// * * * * * * * * * * * * * * * * * * * * * * * * * * * * * * * * * * * * * //

dimensions      [0 3 -1 0 0 0 0];

oriented        oriented;

internalField   nonuniform List<scalar> 
319200
(
7.14424e-09
-1.51974e-06
0.000462618
-0.000463115
5.67268e-06
0.00045531
0.000121238
-0.00011549
-2.02056e-07
0.000121998
3.26406e-05
-3.22972e-05
-2.38802e-06
3.54511e-05
8.28309e-06
-1.03404e-05
-2.6512e-06
1.11123e-05
1.07956e-06
-3.46925e-06
-2.36424e-06
3.47136e-06
-9.38664e-07
-1.13524e-06
-1.87926e-06
9.34776e-07
-1.30378e-06
-5.19552e-07
-1.42216e-06
2.33381e-07
-1.04551e-06
-4.27465e-07
-9.97776e-07
4.57822e-08
-8.28608e-07
-5.86205e-08
-7.72e-07
-1.73348e-07
-9.06322e-07
2.92023e-07
-9.72702e-07
1.93887e-07
-1.03138e-06
7.09404e-09
-1.04543e-06
1.2068e-07
-1.21021e-06
2.85662e-07
-8.38622e-07
-2.59781e-07
-5.99788e-07
-2.94516e-07
-5.30906e-07
3.78292e-08
-3.11366e-07
6.2326e-08
-7.09951e-09
-5.30479e-07
4.86876e-08
9.30016e-09
-4.6727e-08
4.41363e-07
-6.60733e-09
-1.6314e-07
-2.07665e-08
-1.81275e-08
-8.14949e-08
2.05381e-07
-1.07803e-07
6.78761e-08
-6.90931e-08
6.96595e-08
1.57714e-07
-2.54094e-07
4.13093e-07
-4.25077e-07
4.23602e-07
6.06229e-08
4.30079e-07
1.46093e-07
6.52996e-07
-2.40369e-07
8.55622e-07
-3.40286e-07
8.5838e-07
-1.63949e-07
6.38545e-07
2.81644e-07
4.36128e-07
4.62352e-07
5.29769e-07
-9.76985e-08
7.2836e-07
-4.51846e-07
8.54187e-07
-1.94011e-07
9.90797e-07
-6.34994e-08
1.07421e-06
-1.39543e-07
1.0645e-06
1.08095e-07
1.15586e-06
1.32327e-07
1.43816e-06
-4.39235e-07
1.58389e-06
-5.3231e-07
1.36511e-06
1.71064e-07
1.05052e-06
6.37264e-07
8.12647e-07
4.49109e-07
6.26914e-07
2.51793e-07
5.55918e-07
1.01547e-07
6.68967e-07
-2.27029e-07
9.40823e-07
-4.58966e-07
1.09573e-06
-1.97799e-07
1.17397e-06
7.30686e-08
1.08582e-06
2.14566e-07
8.80366e-07
3.99563e-07
6.7843e-07
4.96422e-07
5.84519e-07
2.28108e-07
6.93298e-07
-3.09636e-07
7.68728e-07
-2.82295e-07
7.12432e-07
1.74052e-09
7.25564e-07
-9.66023e-08
8.54733e-07
-4.081e-07
9.93947e-07
-3.95617e-07
9.75427e-07
4.55909e-08
9.24891e-07
2.39378e-07
1.06217e-06
5.47495e-10
1.20673e-06
-1.20236e-07
1.30592e-06
-1.66546e-08
1.24718e-06
1.94708e-07
1.14277e-06
1.70568e-07
1.02368e-06
7.33662e-08
8.25221e-07
2.52975e-07
7.06885e-07
2.87442e-07
7.1817e-07
9.92293e-08
8.97451e-07
-2.75187e-07
1.12241e-06
-4.01794e-07
1.20345e-06
-1.29672e-07
1.32664e-06
-4.09738e-09
1.46954e-06
-5.52407e-08
1.65994e-06
-2.55074e-07
1.7314e-06
-2.49899e-07
1.58075e-06
1.03465e-07
1.36911e-06
2.89775e-07
1.14697e-06
2.60411e-07
1.03199e-06
6.8655e-08
9.97175e-07
-1.55252e-10
9.00349e-07
1.79334e-07
8.67931e-07
1.50155e-07
8.90328e-07
8.8425e-09
1.04215e-06
-2.27364e-07
1.14184e-06
-2.11922e-07
1.06248e-06
5.16548e-08
9.45488e-07
2.24654e-07
8.04101e-07
2.81755e-07
8.51984e-07
-2.08763e-08
9.56134e-07
-1.6515e-07
1.02328e-06
-1.34332e-07
9.93603e-07
5.03435e-08
8.05564e-07
2.4056e-07
6.87377e-07
1.51614e-07
6.21729e-07
1.33597e-08
6.09095e-07
-1.09202e-07
6.28618e-07
-9.35423e-08
6.29327e-07
7.17512e-08
7.09727e-07
8.7409e-08
8.71953e-07
-3.07268e-08
1.11322e-06
-2.69755e-07
1.47409e-06
-4.72138e-07
1.6714e-06
-3.20163e-07
1.80223e-06
-1.48747e-07
1.74921e-06
9.85475e-08
1.69269e-06
1.39056e-07
1.78485e-06
-5.07292e-08
1.91054e-06
-1.82658e-07
2.19649e-06
-4.07613e-07
2.43348e-06
-3.42685e-07
2.62445e-06
-1.84114e-07
2.79627e-06
-6.55772e-08
2.85944e-06
7.52362e-08
3.03557e-06
-9.10346e-08
3.2132e-06
-1.7982e-07
3.39474e-06
-2.81421e-07
3.54254e-06
-2.7355e-07
3.49458e-06
-2.32046e-08
3.36724e-06
1.78396e-07
3.07322e-06
4.20093e-07
2.67155e-06
5.15939e-07
2.31566e-06
3.96565e-07
1.90437e-06
3.95242e-07
1.65784e-06
1.80459e-07
1.3852e-06
1.68571e-07
1.19597e-06
1.07524e-07
1.05206e-06
1.36558e-07
8.87139e-07
2.56004e-07
7.75612e-07
2.54991e-07
5.44556e-07
3.55539e-07
3.58782e-07
2.56784e-07
1.18309e-07
2.49516e-07
-9.75654e-08
1.55251e-07
-2.8646e-07
6.6543e-08
-4.46811e-07
2.45165e-08
-5.01992e-07
-3.33696e-08
-5.19305e-07
2.69622e-08
-5.06053e-07
7.70127e-08
-4.55495e-07
7.92324e-08
-4.38553e-07
1.39e-07
-3.66498e-07
8.26735e-08
-3.15526e-07
6.15654e-08
-2.54331e-07
-2.87843e-08
-1.80238e-07
-1.18002e-07
-1.08278e-07
-1.74439e-07
-5.1955e-08
-1.96625e-07
-4.57854e-08
-1.68197e-07
-1.07468e-07
-1.13531e-07
-1.95867e-07
-5.83554e-08
-3.06372e-07
2.93077e-08
-3.77916e-07
5.71416e-08
-4.62711e-07
9.83878e-08
-5.46267e-07
1.02372e-07
-6.25064e-07
1.07168e-07
-7.16175e-07
1.57616e-07
-8.11295e-07
1.92413e-07
-9.30002e-07
2.20445e-07
-1.05719e-06
2.0517e-07
-1.16671e-06
1.64841e-07
-1.23443e-06
1.17473e-07
-1.25274e-06
6.69651e-08
-1.22449e-06
4.98527e-09
-1.14868e-06
-7.03191e-08
-1.01493e-06
-1.45339e-07
-8.23464e-07
-2.03699e-07
-5.86336e-07
-2.38287e-07
-3.30675e-07
-2.55622e-07
-9.0195e-08
-2.49791e-07
1.14892e-07
-2.2659e-07
2.52244e-07
-1.62691e-07
2.85635e-07
-5.46105e-08
2.04934e-07
6.24195e-08
7.66917e-09
1.78055e-07
-2.55102e-07
2.48264e-07
-5.56343e-07
2.92436e-07
-8.5718e-07
2.99316e-07
-1.11915e-06
2.64054e-07
-1.31692e-06
2.022e-07
-1.42004e-06
1.10058e-07
-1.40751e-06
-1.92811e-09
-1.26748e-06
-1.2962e-07
-1.00524e-06
-2.551e-07
-6.47172e-07
-3.57078e-07
-2.40214e-07
-4.12608e-07
1.60822e-07
-4.14277e-07
5.03723e-07
-3.60513e-07
7.5056e-07
-2.68668e-07
8.82415e-07
-1.54201e-07
8.95469e-07
-3.21519e-08
7.94743e-07
8.59842e-08
5.85849e-07
1.94288e-07
2.86825e-07
2.84143e-07
-7.14517e-08
3.47464e-07
-4.54259e-07
3.84104e-07
-7.93682e-07
3.47513e-07
-1.04965e-06
2.63141e-07
-1.18774e-06
1.39611e-07
-1.2105e-06
2.01694e-08
-1.13628e-06
-7.71206e-08
-9.96996e-07
-1.44387e-07
-8.19616e-07
-1.92671e-07
-6.27184e-07
-2.1674e-07
-4.35646e-07
-2.14082e-07
-2.79095e-07
-1.64889e-07
-1.90802e-07
-8.9422e-08
-1.93597e-07
-7.82555e-09
-2.78636e-07
6.08694e-08
-4.1104e-07
1.12234e-07
-5.50755e-07
1.41136e-07
-6.72274e-07
1.34569e-07
-7.60775e-07
9.35538e-08
-8.12867e-07
4.27755e-08
-8.17264e-07
4.38542e-10
-7.86941e-07
-1.86709e-10
-7.17554e-07
-1.10601e-08
-6.47933e-07
-1.69103e-08
-6.02584e-07
-2.38724e-08
-5.66611e-07
-2.65103e-08
-6.20156e-07
7.76397e-08
-6.76599e-07
1.05545e-07
-7.86361e-07
1.49696e-07
-8.79665e-07
1.08072e-07
-8.93273e-07
1.21578e-08
-9.02248e-07
-5.54468e-09
-8.15029e-07
-1.06284e-07
-7.30724e-07
-1.29316e-07
-6.19519e-07
-1.65507e-07
-4.73532e-07
-1.88614e-07
-3.68602e-07
-1.17413e-07
-2.90125e-07
-7.47423e-08
-3.10377e-07
3.3125e-08
-4.40041e-07
1.64782e-07
-6.38102e-07
2.63417e-07
-9.63161e-07
3.93483e-07
-1.25822e-06
3.31569e-07
-1.57195e-06
3.02755e-07
-1.79824e-06
1.97056e-07
-1.88259e-06
5.64058e-08
-1.91208e-06
7.05898e-09
-1.78037e-06
-1.55436e-07
-1.66792e-06
-1.1287e-07
-1.58247e-06
-5.10666e-08
-1.59672e-06
5.93845e-08
-1.74904e-06
1.68871e-07
-1.90512e-06
1.48099e-07
-2.15113e-06
2.27916e-07
-2.30972e-06
1.47554e-07
-2.51304e-06
1.77074e-07
-2.68433e-06
1.38786e-07
-2.76196e-06
8.43256e-08
-2.79149e-06
8.55847e-08
-2.64886e-06
-7.53721e-08
-2.44898e-06
-1.78808e-07
-2.20678e-06
-2.74257e-07
-1.92618e-06
-3.45258e-07
-1.74762e-06
-2.39595e-07
-1.54797e-06
-2.41846e-07
-1.43831e-06
-1.03802e-07
-1.35439e-06
-3.66434e-08
-1.23042e-06
-7.93247e-08
-1.12576e-06
-1.00417e-07
-9.35936e-07
-2.18669e-07
-7.96193e-07
-1.68631e-07
-6.96202e-07
-1.07918e-07
-5.65223e-07
-1.2115e-07
-3.93493e-07
-1.37786e-07
-7.30329e-08
-2.66414e-07
3.45195e-07
-3.95581e-07
7.57231e-07
-4.60464e-07
1.13676e-06
-4.36826e-07
1.33524e-06
-2.07608e-07
1.4765e-06
-8.18498e-08
1.48145e-06
4.40229e-08
1.42236e-06
7.17943e-08
1.38545e-06
2.45373e-08
1.25186e-06
1.28641e-07
1.17823e-06
6.37108e-08
1.07181e-06
1.07479e-07
9.94167e-07
6.93684e-08
1.00693e-06
-3.5899e-08
9.76751e-07
-1.09699e-08
1.00825e-06
-4.51194e-08
9.60073e-07
7.35058e-08
9.32747e-07
4.90365e-08
9.27764e-07
1.0397e-09
8.94299e-07
-3.89429e-09
8.64484e-07
-2.5209e-08
6.70744e-07
1.34836e-07
4.90145e-07
1.87616e-07
2.75408e-07
2.36471e-07
1.50625e-07
1.28226e-07
8.84856e-08
3.97749e-08
8.50994e-08
4.18104e-08
1.5323e-07
1.2324e-08
3.40869e-07
-1.71162e-07
6.45971e-07
-3.73677e-07
1.01997e-06
-4.14759e-07
1.24147e-06
-1.74074e-07
1.40813e-06
-7.31135e-08
1.41604e-06
8.84961e-09
1.33244e-06
1.68829e-08
1.15011e-06
1.04e-07
7.97458e-07
3.50595e-07
5.01811e-07
3.70053e-07
2.55516e-07
2.77883e-07
1.03631e-07
1.58649e-07
-3.05835e-08
1.83223e-07
-9.31295e-08
1.4688e-07
-9.20253e-08
2.70891e-08
-5.61091e-08
-5.3417e-08
-7.40082e-08
6.05023e-08
-1.11258e-07
1.8368e-07
-4.55034e-08
9.63939e-08
8.03389e-08
-1.19799e-07
2.27024e-07
-2.2303e-07
2.8994e-07
-8.9663e-08
3.24294e-07
-3.90826e-08
3.15796e-07
-1.08959e-07
2.61817e-07
-1.02379e-07
1.03851e-07
9.76464e-08
-7.77457e-08
1.85058e-07
-2.33468e-07
1.30184e-07
-3.56616e-07
1.74136e-07
-4.15524e-07
1.61819e-07
-4.65179e-07
1.02309e-07
-6.11819e-07
1.07959e-07
-8.96783e-07
2.56273e-07
-1.26636e-06
2.89173e-07
-1.51502e-06
1.48166e-07
-1.77692e-06
3.45531e-07
-1.95488e-06
4.31149e-07
-2.00609e-06
1.18276e-07
-1.80913e-06
-3.1549e-07
-1.55026e-06
-2.57814e-07
-1.35016e-06
-8.42309e-08
-1.07486e-06
-2.56326e-07
-8.49458e-07
-1.90987e-07
-7.62271e-07
4.82568e-08
-7.22758e-07
-2.57422e-08
-7.78435e-07
-6.60908e-08
-9.55364e-07
1.96883e-07
-1.24583e-06
4.22373e-07
-1.43375e-06
2.17168e-07
-1.42973e-06
4.34263e-08
-1.3745e-06
-5.59078e-08
-1.33447e-06
-4.05774e-08
-1.37023e-06
1.357e-07
-1.28453e-06
-5.67462e-08
-1.03488e-06
-2.99344e-07
-9.0324e-07
-8.03137e-08
-8.67161e-07
-1.16803e-07
-8.87784e-07
-1.89296e-08
-9.4572e-07
1.73245e-07
-8.58734e-07
-1.85015e-07
-8.02749e-07
-1.16846e-07
-7.96115e-07
1.41871e-07
-6.16897e-07
-2.74057e-07
-4.48088e-07
-2.89058e-07
-4.69362e-07
1.68503e-07
-3.92612e-07
-1.59396e-07
-4.43396e-07
-1.51878e-08
-5.62693e-07
1.48648e-07
-7.10039e-07
1.48892e-07
-8.02002e-07
1.34755e-07
-8.55134e-07
-3.2618e-08
-8.85011e-07
1.69021e-07
-6.58004e-07
-1.24244e-07
-5.09943e-07
-1.96073e-07
-1.90752e-07
-1.30732e-07
-3.44723e-07
1.98589e-07
1.80172e-07
-4.57673e-07
-1.02598e-06
1.36253e-06
8.85431e-08
-1.11382e-06
-3.73168e-06
3.85738e-06
-4.35269e-07
-3.08929e-06
-1.17631e-05
1.12898e-05
-1.71712e-06
-9.8563e-06
-3.73172e-05
3.55701e-05
-5.40597e-06
-3.19209e-05
-0.000127517
0.00012185
-1.26645e-05
-0.00011538
-0.000467736
0.000454508
-7.5503e-06
-0.000463518
-1.9733e-06
-0.000466636
0.000461031
-0.000466091
-0.000463701
-0.000154123
0.000143339
-0.000119981
-0.000149663
-5.46045e-05
5.66115e-05
-3.36113e-05
-5.33112e-05
-2.03473e-05
2.21962e-05
-1.03422e-05
-2.03431e-05
-7.83748e-06
8.60898e-06
-3.4571e-06
-7.84605e-06
-3.0752e-06
3.08725e-06
-1.296e-06
-2.91024e-06
-1.32026e-06
9.54323e-07
-6.9422e-07
-1.14376e-06
-7.10355e-07
2.45785e-07
-5.8767e-07
-5.48965e-07
-5.7504e-07
3.16249e-08
-5.27541e-07
-1.05066e-07
-5.65713e-07
-1.35491e-07
-4.44178e-07
1.70899e-07
-3.93409e-07
1.43035e-07
-3.98008e-07
1.22004e-08
-3.1793e-07
4.16277e-08
-2.80997e-07
2.50518e-07
-3.7877e-07
-1.59818e-07
-4.5587e-07
-2.15266e-07
-4.75467e-07
5.92731e-08
-4.98438e-07
8.68098e-08
-6.70903e-07
-3.56674e-07
-6.45224e-07
-1.51127e-08
-4.89575e-07
2.86884e-07
-5.57429e-07
-9.4314e-08
-5.13764e-07
-6.1114e-08
-3.0476e-07
-3.28581e-09
-1.70311e-07
-6.65959e-08
-8.32932e-08
-1.77015e-08
-9.7997e-08
-2.39967e-07
-5.61763e-08
-4.6763e-07
3.0153e-08
-2.65423e-08
4.32631e-08
1.32106e-07
-6.47062e-08
-1.33247e-07
-1.60732e-07
-2.45045e-07
-2.37862e-07
-8.75756e-08
-1.73483e-07
2.16518e-07
-1.00834e-07
3.88967e-07
-2.01507e-07
2.24129e-09
-3.60978e-07
-2.93121e-07
-3.58274e-07
-1.97476e-07
-3.02921e-07
-1.19619e-07
-3.47794e-07
-9.54331e-08
-3.70523e-07
1.30061e-07
-3.79462e-07
1.40512e-07
-4.87092e-07
-3.32332e-07
-5.39941e-07
-4.80157e-07
-4.69046e-07
9.94691e-08
-2.742e-07
4.41689e-07
-1.25555e-07
2.99719e-07
-2.19991e-08
1.4751e-07
-7.74313e-09
8.65902e-08
-7.13904e-08
-1.64087e-07
-1.13023e-07
-4.18053e-07
-6.95749e-08
-2.41975e-07
-5.57584e-08
5.85362e-08
-6.70813e-08
2.25203e-07
-2.55234e-08
3.5736e-07
6.42015e-08
4.06075e-07
7.38866e-08
2.17811e-07
-6.29479e-08
-1.73413e-07
-1.58224e-07
-1.87613e-07
-1.50893e-07
-6.13774e-09
-1.30881e-07
-1.17108e-07
-1.69902e-07
-3.6955e-07
-1.84395e-07
-3.8161e-07
-1.21181e-07
-1.8138e-08
-3.95278e-08
1.57206e-07
1.41481e-09
-4.08966e-08
8.44946e-08
-2.03815e-07
1.57782e-07
-9.04635e-08
2.06444e-07
1.4548e-07
1.7745e-07
1.98953e-07
1.56218e-07
9.39702e-08
2.31581e-07
1.76991e-07
3.33792e-07
1.84619e-07
3.21161e-07
1.11249e-07
1.85005e-07
-1.39646e-07
3.83382e-08
-2.55735e-07
-7.03975e-09
-8.48613e-08
-1.90446e-08
7.38833e-09
-2.20141e-08
-5.27573e-08
-2.51339e-08
-2.52415e-07
-2.48517e-08
-2.50635e-07
4.84942e-08
2.96421e-08
9.02194e-08
2.47546e-07
1.30443e-07
2.19664e-07
1.52446e-07
4.61228e-08
2.31445e-07
-7.96841e-08
3.36541e-07
7.3701e-08
4.12309e-07
7.38433e-08
3.57284e-07
6.33331e-08
2.3709e-07
-1.07682e-07
1.34777e-07
-1.10101e-07
1.09698e-07
7.62532e-08
1.43979e-07
1.89893e-07
1.80275e-07
2.44974e-07
1.81664e-07
-2.27641e-08
1.83072e-07
-1.67069e-07
2.22112e-07
-1.73893e-07
3.03583e-07
-3.16575e-08
3.44641e-07
1.98964e-07
3.38296e-07
1.57409e-07
2.70088e-07
8.10114e-08
2.13474e-07
-5.3139e-08
2.01748e-07
-8.23538e-08
2.24615e-07
4.83696e-08
2.52036e-07
5.95005e-08
2.35871e-07
-1.50192e-08
1.75276e-07
-2.09585e-07
9.8105e-08
-3.9536e-07
8.13586e-08
-3.03789e-07
1.1993e-07
-1.8768e-07
2.04332e-07
1.37884e-08
2.63533e-07
7.94969e-08
2.60348e-07
-4.79023e-08
2.11447e-07
-1.34118e-07
1.29516e-07
-3.26056e-07
6.01678e-08
-2.73716e-07
2.55081e-08
-1.49842e-07
-2.72366e-08
-1.32346e-08
-4.33623e-08
9.0942e-08
-1.39928e-07
5.09444e-09
-2.32165e-07
-8.80373e-08
-3.27124e-07
-1.86934e-07
-3.83976e-07
-2.17189e-07
-3.60745e-07
-4.69444e-08
-2.81363e-07
9.84903e-08
-1.52216e-07
2.90412e-07
-2.18889e-08
3.85071e-07
2.50493e-08
3.49082e-07
7.7223e-08
3.4252e-07
5.86817e-08
1.9845e-07
5.72084e-08
1.6949e-07
4.13685e-08
1.22805e-07
2.72256e-08
1.50141e-07
3.49347e-08
2.47732e-07
3.30157e-08
2.56346e-07
6.32086e-08
3.2478e-07
7.35611e-08
2.45864e-07
1.04516e-07
2.17994e-07
1.24794e-07
1.34407e-07
1.44961e-07
4.58104e-08
1.46455e-07
2.24537e-08
1.38884e-07
-2.63711e-08
1.26431e-07
3.88377e-08
1.20066e-07
8.27909e-08
9.94141e-08
9.92892e-08
9.45982e-08
1.43211e-07
8.56013e-08
9.10573e-08
8.75835e-08
5.89623e-08
9.07692e-08
-3.25999e-08
8.03949e-08
-1.08267e-07
6.41004e-08
-1.58794e-07
3.49395e-08
-1.68123e-07
3.76229e-09
-1.37688e-07
-2.47098e-08
-8.57398e-08
-4.87564e-08
-3.50056e-08
-5.64011e-08
3.624e-08
-6.15001e-08
6.1516e-08
-5.13782e-08
8.75286e-08
-3.17119e-08
8.1953e-08
-4.62354e-09
7.931e-08
5.08287e-08
1.01385e-07
1.16294e-07
1.26158e-07
1.82001e-07
1.53937e-07
2.26007e-07
1.60351e-07
2.3934e-07
1.50684e-07
2.28346e-07
1.27633e-07
2.06655e-07
8.78118e-08
1.8485e-07
2.59353e-08
1.65497e-07
-5.18287e-08
1.481e-07
-1.28814e-07
1.34109e-07
-1.90593e-07
1.23561e-07
-2.28634e-07
1.10883e-07
-2.43847e-07
8.62233e-08
-2.26043e-07
4.55609e-08
-1.8685e-07
-3.08909e-09
-1.14977e-07
-3.13933e-08
-2.72483e-08
-2.8437e-08
5.85147e-08
1.63077e-08
1.32355e-07
9.43345e-08
1.69276e-07
1.86744e-07
1.99059e-07
2.76022e-07
2.09065e-07
3.49949e-07
1.89152e-07
3.98239e-07
1.52931e-07
4.14773e-07
9.25428e-08
3.98628e-07
1.32314e-08
3.55971e-07
-8.79552e-08
3.05012e-07
-2.05137e-07
2.61527e-07
-3.14594e-07
2.32386e-07
-3.84469e-07
2.07271e-07
-3.90166e-07
1.78598e-07
-3.32849e-07
1.42535e-07
-2.33616e-07
1.0692e-07
-1.19597e-07
8.39852e-08
-1.02259e-08
8.21062e-08
8.68576e-08
1.05539e-07
1.69853e-07
1.5513e-07
2.33554e-07
2.30912e-07
2.70687e-07
3.31163e-07
2.82862e-07
4.31053e-07
2.46637e-07
5.01429e-07
1.91781e-07
5.26898e-07
1.13158e-07
5.11227e-07
3.48581e-08
4.76892e-07
-4.3766e-08
4.40533e-07
-1.09004e-07
4.09091e-07
-1.62199e-07
3.80182e-07
-1.88796e-07
3.61249e-07
-1.9611e-07
3.55041e-07
-1.59636e-07
3.59733e-07
-9.50615e-08
3.63656e-07
-1.26919e-08
3.57904e-07
6.56832e-08
3.48032e-07
1.21177e-07
3.50081e-07
1.38166e-07
3.70114e-07
1.13621e-07
4.0163e-07
6.11306e-08
4.2791e-07
1.5594e-08
4.5342e-07
-2.59597e-08
4.73121e-07
-2.07638e-08
4.8797e-07
-2.67766e-08
4.82353e-07
-1.21569e-08
4.45846e-07
1.17783e-08
4.3005e-07
-1.15557e-08
4.01719e-07
1.05142e-07
4.31992e-07
7.44574e-08
4.45128e-07
1.35757e-07
4.46676e-07
1.05732e-07
4.54831e-07
3.22609e-09
4.28944e-07
1.95803e-08
4.39289e-07
-1.17378e-07
4.16022e-07
-1.0679e-07
3.90217e-07
-1.40433e-07
3.73843e-07
-1.72964e-07
3.35395e-07
-7.96833e-08
3.20179e-07
-6.02381e-08
2.89593e-07
6.30032e-08
2.7403e-07
1.79643e-07
3.12723e-07
2.24022e-07
3.58601e-07
3.46904e-07
4.36506e-07
2.52966e-07
4.82573e-07
2.55993e-07
5.1081e-07
1.6813e-07
5.31208e-07
3.53205e-08
5.03561e-07
3.40225e-08
4.66214e-07
-1.18769e-07
4.04539e-07
-5.18711e-08
3.74437e-07
-2.16383e-08
3.56932e-07
7.62197e-08
3.31871e-07
1.93267e-07
3.17574e-07
1.61737e-07
3.25793e-07
2.19042e-07
3.76514e-07
9.61854e-08
4.52716e-07
1.00233e-07
5.19355e-07
7.15217e-08
5.74497e-07
2.85737e-08
5.96147e-07
6.3345e-08
5.84351e-07
-6.41447e-08
5.13587e-07
-1.08587e-07
4.18961e-07
-1.80143e-07
3.30174e-07
-2.56949e-07
2.72743e-07
-1.82609e-07
2.28256e-07
-1.97771e-07
1.97435e-07
-7.33586e-08
1.79281e-07
-1.88363e-08
1.54614e-07
-5.4977e-08
1.38086e-07
-8.41878e-08
1.22091e-07
-2.02957e-07
1.46084e-07
-1.92899e-07
1.71529e-07
-1.3363e-07
1.80719e-07
-1.30606e-07
1.37859e-07
-9.52015e-08
8.90766e-08
-2.17932e-07
-1.59526e-09
-3.05234e-07
-9.95083e-08
-3.62903e-07
-2.00022e-07
-3.36694e-07
-2.45619e-07
-1.62424e-07
-2.45856e-07
-8.20583e-08
-2.31719e-07
2.94158e-08
-2.1371e-07
5.32962e-08
-1.87717e-07
-1.95874e-09
-1.25249e-07
6.56606e-08
-9.80088e-08
3.59599e-08
-9.36471e-08
1.02611e-07
-1.19898e-07
9.5117e-08
-1.59315e-07
3.0173e-09
-1.76482e-07
5.7001e-09
-1.71559e-07
-5.05366e-08
-1.48049e-07
4.95019e-08
-1.48623e-07
4.91171e-08
-1.7921e-07
3.1128e-08
-2.17494e-07
3.38865e-08
-2.33721e-07
-9.48572e-09
-2.48239e-07
1.48855e-07
-2.16624e-07
1.55507e-07
-1.67494e-07
1.86848e-07
-1.02102e-07
6.23468e-08
-5.65701e-08
-6.23168e-09
-2.34673e-09
-1.2875e-08
1.28514e-09
8.22586e-09
-7.20855e-08
-9.82658e-08
-2.1564e-07
-2.30615e-07
-2.99647e-07
-3.31269e-07
-3.0691e-07
-1.67359e-07
-3.11826e-07
-6.87886e-08
-3.68691e-07
6.50844e-08
-4.5353e-07
1.01058e-07
-4.7941e-07
1.29195e-07
-4.57025e-07
3.2752e-07
-3.6874e-07
2.81085e-07
-3.03486e-07
2.11967e-07
-2.46663e-07
1.01202e-07
-1.82764e-07
1.18746e-07
-1.6173e-07
1.25314e-07
-1.58793e-07
2.36521e-08
-1.45438e-07
-6.72545e-08
-7.18193e-08
-1.3595e-08
-1.67463e-08
1.28127e-07
-2.02937e-08
9.94494e-08
-1.03971e-07
-3.66375e-08
-2.01354e-07
-1.26201e-07
-2.66659e-07
-2.49479e-08
-3.02178e-07
-4.1815e-09
-3.85609e-07
-2.61729e-08
-4.2196e-07
-6.66999e-08
-3.91071e-07
6.60547e-08
-3.5935e-07
1.52602e-07
-3.6139e-07
1.3145e-07
-3.99651e-07
2.1159e-07
-3.84663e-07
1.45998e-07
-3.85489e-07
1.02281e-07
-3.27905e-07
4.94949e-08
-2.39015e-07
1.66473e-07
-2.06529e-07
2.55746e-07
-1.7001e-07
1.10691e-07
-1.55999e-08
1.90154e-07
8.4144e-08
3.30418e-07
-8.61515e-09
2.10024e-07
-1.76549e-07
-1.48587e-07
-2.25956e-07
-2.09445e-07
-2.44733e-07
-6.64999e-08
-3.33261e-07
-1.68855e-07
-3.62349e-07
-1.62957e-07
-3.49519e-07
3.43721e-08
-4.06545e-07
3.02363e-08
-5.08364e-07
3.46746e-08
-4.55548e-07
1.42991e-07
-4.03879e-07
3.69573e-07
-4.65755e-07
2.77822e-07
-5.43365e-07
1.19696e-07
-5.66774e-07
-3.39621e-08
-5.02595e-07
-1.06332e-07
-4.48776e-07
8.02269e-08
-4.3178e-07
-7.54244e-08
-3.64734e-07
-3.68006e-07
-2.56667e-07
-1.89766e-07
-2.33874e-07
-1.40534e-07
-1.58465e-07
-9.45953e-08
-9.48993e-08
1.1028e-07
-1.59697e-07
-1.18681e-07
-1.22022e-07
-1.52098e-07
-1.36286e-07
1.59237e-07
-2.79216e-07
-1.27683e-07
-2.85723e-07
-2.7927e-07
-2.56468e-07
1.4193e-07
-3.42819e-07
-7.1543e-08
-2.96642e-07
-6.08596e-08
-2.06749e-07
5.78586e-08
-1.41053e-07
8.23536e-08
-6.51537e-08
5.70601e-08
-1.80803e-08
-7.90645e-08
6.02887e-08
8.9984e-08
1.13984e-07
-1.74343e-07
3.08978e-08
-1.1362e-07
2.26549e-07
-3.21704e-07
1.10068e-07
3.12253e-07
7.18161e-07
-1.0629e-06
7.19065e-07
1.35637e-06
2.38021e-06
-2.77633e-06
2.74971e-06
3.48373e-06
7.09926e-06
-7.44766e-06
9.51205e-06
8.87368e-06
1.94608e-05
-1.98241e-05
3.25279e-05
2.25108e-05
5.32722e-05
-5.2676e-05
0.000118056
5.70757e-05
0.000151295
-0.000148648
0.000462199
0.00014361
0.000460534
-0.000461858
0.000462629
0.000452857
7.06238e-06
0.000142566
-0.000153386
0.000143119
0.000142799
8.2814e-05
-8.93893e-05
5.25569e-05
8.68417e-05
3.98336e-05
-4.05986e-05
2.08293e-05
4.11997e-05
1.747e-05
-1.69804e-05
8.41786e-06
1.76607e-05
7.16439e-06
-6.59084e-06
3.27969e-06
6.971e-06
2.70197e-06
-2.33362e-06
1.15126e-06
2.50234e-06
7.94417e-07
-7.87371e-07
2.35023e-07
8.05492e-07
-2.79228e-08
-2.84652e-07
-2.12359e-07
2.16254e-07
-2.74751e-07
-4.28195e-08
-4.15856e-07
4.87395e-09
-3.20725e-07
7.54327e-08
-2.28781e-07
5.10376e-08
-2.62061e-07
4.58412e-08
-2.21475e-07
1.61154e-09
-8.57324e-08
1.15578e-07
-1.66821e-07
-7.76433e-08
-3.5693e-07
-2.38083e-08
-3.01432e-07
5.34322e-09
-2.06382e-07
-6.53422e-09
-4.14921e-07
-1.46357e-07
-4.70526e-07
4.2235e-08
-2.08784e-07
2.67182e-08
-2.38144e-07
-6.36837e-08
-2.74893e-07
-2.3506e-08
-2.07014e-07
-7.0749e-08
-1.90346e-07
-8.32798e-08
-1.25543e-07
-8.28969e-08
-2.17932e-07
-1.48251e-07
-4.54635e-07
-2.31785e-07
-4.13978e-07
-6.81671e-08
-2.88453e-07
5.56312e-09
-3.04856e-07
-1.1786e-07
-4.53442e-07
-9.74322e-08
-5.56375e-07
1.44302e-08
-3.95074e-07
5.43224e-08
-9.80393e-08
9.10654e-08
-5.45983e-08
-4.2044e-08
-2.63589e-07
-8.49637e-08
-3.74127e-07
-8.77764e-08
-3.71723e-07
-1.22867e-07
-4.29032e-07
-3.89709e-08
-2.98976e-07
-8.49626e-10
-1.52304e-07
-7.02355e-09
-3.35318e-07
-1.50183e-07
-6.63377e-07
-1.52946e-07
-6.70556e-07
1.05816e-07
-3.53785e-07
1.24085e-07
-1.44404e-07
8.94943e-08
-3.27122e-08
3.49687e-08
1.66986e-08
3.63443e-08
-1.0583e-07
-4.23811e-08
-3.48712e-07
-1.75988e-07
-5.2451e-07
-6.69905e-08
-5.03293e-07
3.65082e-08
-4.31228e-07
1.52342e-07
-2.57883e-07
1.83245e-07
1.16783e-08
1.35771e-07
1.64038e-07
6.47341e-08
2.38779e-08
-3.39514e-08
-1.29849e-07
-3.45692e-08
-1.16e-07
-2.0654e-08
-9.74921e-08
-1.36258e-07
-2.80069e-07
-1.87586e-07
-4.77038e-07
-1.85239e-07
-4.75435e-07
-2.03437e-08
-3.27278e-07
8.43499e-09
-2.87272e-07
-8.15158e-08
-3.90541e-07
-1.0116e-07
-4.24102e-07
-5.75267e-08
-3.45452e-07
6.61791e-08
-2.66437e-07
1.19254e-07
-2.34895e-07
6.1716e-08
-1.5496e-07
9.63292e-08
-8.81886e-09
3.77505e-08
7.50205e-08
2.6691e-08
-4.36793e-08
-2.16554e-08
-2.28526e-07
-7.15856e-08
-3.01675e-07
-1.23933e-08
-2.21381e-07
-7.3554e-08
-1.78006e-07
-9.67511e-08
-2.87742e-07
-1.43279e-07
-4.31245e-07
-1.07716e-07
-4.4399e-07
4.1813e-08
-2.94956e-07
9.79288e-08
-1.70474e-07
9.45912e-08
-1.69032e-07
4.40842e-08
-2.02989e-07
-4.63364e-08
-1.76221e-07
4.63192e-08
-9.33706e-08
-9.63156e-09
-8.01272e-08
4.94573e-08
-1.89971e-07
1.53003e-09
-3.19317e-07
1.86197e-08
-3.41575e-07
9.78929e-08
-2.09923e-07
5.7629e-08
-5.43965e-08
8.88366e-08
-3.05244e-08
-4.72535e-08
-1.34376e-07
-6.38404e-08
-2.5876e-07
-5.01381e-08
-2.69471e-07
-2.15781e-08
-1.75651e-07
1.04513e-07
-6.47076e-08
4.5835e-08
-3.54573e-08
5.11302e-08
-8.91402e-08
-8.3868e-11
-1.42313e-07
-2.97985e-08
-1.08928e-07
1.43836e-08
-1.21836e-08
-3.78246e-08
5.1268e-08
-7.90284e-08
-2.72314e-09
-1.56127e-07
-1.65608e-07
-2.32983e-07
-3.03902e-07
-1.65983e-07
-3.34707e-07
-1.57345e-07
-2.57891e-07
-6.34851e-08
-1.24016e-07
-5.48317e-08
-6.57635e-08
-1.06608e-07
-9.22016e-08
-1.08134e-07
-2.36769e-07
-1.81952e-07
-3.71597e-07
-1.39361e-07
-4.27221e-07
-9.47035e-08
-3.8884e-07
-5.21163e-08
-2.97378e-07
-1.03859e-09
-2.50332e-07
-4.24894e-08
-2.80532e-07
-5.8392e-08
-3.97086e-07
-7.09537e-08
-5.39835e-07
-7.50328e-08
-6.17723e-07
3.03361e-08
-5.98582e-07
7.87274e-08
-4.78347e-07
1.69546e-07
-3.14766e-07
2.20848e-07
-1.79954e-07
2.13622e-07
-7.75097e-08
2.39422e-07
-6.80158e-08
1.88299e-07
-9.67752e-08
1.97589e-07
-1.61733e-07
1.871e-07
-1.94159e-07
1.81904e-07
-1.81384e-07
2.34291e-07
-1.15865e-07
1.9016e-07
-2.34818e-08
2.31729e-07
5.55205e-08
1.66192e-07
1.14966e-07
1.57878e-07
1.34961e-07
1.13741e-07
1.06703e-07
7.33963e-08
5.88429e-08
6.96392e-08
-1.18793e-08
4.36735e-08
-4.35569e-08
6.98332e-08
-4.03878e-08
7.89337e-08
-1.68774e-08
7.50831e-08
5.12269e-08
7.44018e-08
1.05119e-07
3.64504e-08
1.53962e-07
9.3942e-09
1.53369e-07
-3.27423e-08
1.12882e-07
-6.85262e-08
4.09543e-08
-8.76247e-08
-3.7134e-08
-9.08063e-08
-9.55858e-08
-8.00192e-08
-1.43522e-07
-3.85982e-08
-1.58957e-07
-2.0379e-08
-1.66995e-07
4.34556e-08
-1.46438e-07
4.01238e-08
-1.32863e-07
7.31074e-08
-1.15732e-07
6.39628e-08
-1.04433e-07
6.71358e-08
-7.88711e-08
7.49353e-08
-3.80645e-08
8.44518e-08
1.50195e-08
9.99402e-08
7.6609e-08
9.78367e-08
1.30941e-07
9.54148e-08
1.78771e-07
7.88548e-08
2.12857e-07
5.27665e-08
2.26246e-07
1.15755e-08
2.13755e-07
-4.03181e-08
1.77664e-07
-9.37138e-08
1.23195e-07
-1.37125e-07
5.51232e-08
-1.61574e-07
-2.2638e-08
-1.67108e-07
-9.97588e-08
-1.49953e-07
-1.70915e-07
-1.16733e-07
-2.14984e-07
-7.19574e-08
-2.24464e-07
-1.88279e-08
-1.98856e-07
3.18403e-08
-1.459e-07
7.83248e-08
-7.72466e-08
9.95417e-08
2.4817e-09
1.18244e-07
9.67794e-08
1.13675e-07
1.81886e-07
1.02947e-07
2.51656e-07
8.20589e-08
2.97426e-07
4.56676e-08
3.13672e-07
-4.12378e-09
2.94734e-07
-7.01312e-08
2.3265e-07
-1.44171e-07
1.28197e-07
-2.11262e-07
-4.56343e-09
-2.52832e-07
-1.37661e-07
-2.58194e-07
-2.4579e-07
-2.25846e-07
-3.15441e-07
-1.65093e-07
-3.46447e-07
-8.97184e-08
-3.45086e-07
-1.27138e-08
-3.12795e-07
5.34407e-08
-2.49758e-07
1.05692e-07
-1.60283e-07
1.42958e-07
-5.3884e-08
1.6317e-07
5.29643e-08
1.74899e-07
1.42066e-07
1.56424e-07
2.03765e-07
1.28973e-07
2.33661e-07
8.21568e-08
2.31502e-07
3.59144e-08
2.00926e-07
-1.42908e-08
1.48059e-07
-5.72315e-08
8.06041e-08
-9.58341e-08
1.00503e-08
-1.19326e-07
-6.07569e-08
-1.26382e-07
-1.1629e-07
-1.05176e-07
-1.47026e-07
-6.53922e-08
-1.45144e-07
-1.5634e-08
-1.10278e-07
2.9764e-08
-5.30339e-08
6.28862e-08
9.87187e-09
7.42213e-08
5.19824e-08
7.04807e-08
7.23456e-08
3.97448e-08
7.04018e-08
1.65223e-08
5.5219e-08
-1.17826e-08
3.98613e-08
-6.40004e-09
2.04985e-08
-8.39606e-09
4.09468e-09
3.27388e-09
-9.32585e-09
2.42337e-08
-2.66224e-08
4.786e-09
8.89082e-09
6.86876e-08
4.27713e-08
3.96498e-08
1.12394e-07
6.52201e-08
1.60738e-07
5.6487e-08
1.81406e-07
-1.8331e-08
1.69665e-07
3.04456e-08
1.30468e-07
-7.90438e-08
7.22449e-08
-4.94185e-08
1.72367e-08
-8.6267e-08
-6.48282e-08
-9.17318e-08
-1.22107e-07
-2.32314e-08
-1.73819e-07
-9.34639e-09
-1.81265e-07
6.96328e-08
-1.35299e-07
1.32864e-07
-5.22751e-08
1.40189e-07
7.37814e-08
2.2004e-07
1.79269e-07
1.46673e-07
2.68782e-07
1.65679e-07
3.13015e-07
1.231e-07
3.06409e-07
4.11323e-08
2.59682e-07
7.99611e-08
1.67929e-07
-2.78012e-08
8.04547e-08
3.48219e-08
3.0968e-08
2.70705e-08
4.02158e-08
6.6197e-08
1.08978e-07
1.23733e-07
1.85729e-07
8.4219e-08
2.61774e-07
1.42238e-07
2.96686e-07
6.05223e-08
3.22575e-07
7.36044e-08
3.4782e-07
4.555e-08
3.78571e-07
-2.88699e-09
4.14788e-07
2.64377e-08
4.17581e-07
-6.7604e-08
3.88449e-07
-8.00942e-08
3.26933e-07
-1.19235e-07
2.39489e-07
-1.70079e-07
1.75722e-07
-1.19381e-07
1.28005e-07
-1.50559e-07
1.47974e-07
-9.38007e-08
1.99933e-07
-7.12373e-08
2.54978e-07
-1.10438e-07
2.64445e-07
-9.40485e-08
2.32325e-07
-1.71214e-07
1.94787e-07
-1.5573e-07
1.8758e-07
-1.2679e-07
2.25657e-07
-1.69053e-07
2.47389e-07
-1.17313e-07
2.4067e-07
-2.11612e-07
1.35602e-07
-2.00587e-07
3.56674e-10
-2.28105e-07
-1.25662e-07
-2.11153e-07
-1.61772e-07
-1.26821e-07
-1.47646e-07
-9.67195e-08
-8.05462e-08
-3.82445e-08
-4.23923e-09
-2.35914e-08
1.17379e-08
-1.85313e-08
5.26276e-08
2.41641e-08
6.10035e-08
2.69717e-08
1.12961e-07
5.00409e-08
1.51822e-07
5.56447e-08
1.48994e-07
5.23643e-09
1.17554e-07
3.65343e-08
7.59009e-08
-9.48509e-09
8.26786e-08
4.2126e-08
1.06272e-07
2.49277e-08
1.20423e-07
1.63815e-08
1.0132e-07
5.23933e-08
6.8031e-08
2.3207e-08
1.00921e-07
1.15371e-07
1.80452e-07
7.5388e-08
2.71399e-07
9.53169e-08
2.95275e-07
3.78903e-08
3.10368e-07
-2.19022e-08
2.95181e-07
1.74465e-09
3.41189e-07
-3.8355e-08
3.01439e-07
-5.90939e-08
1.94139e-07
-1.23913e-07
1.92097e-08
-1.56961e-07
-6.69734e-08
-8.18284e-08
-9.24425e-08
-4.4008e-08
-5.45725e-08
2.64917e-08
-3.79927e-08
8.37256e-08
-2.17021e-08
1.12132e-07
9.88227e-08
2.06218e-07
2.12338e-07
1.668e-07
2.76821e-07
1.46732e-07
2.67026e-07
1.10273e-07
2.97314e-07
8.77713e-08
3.0115e-07
1.2083e-07
2.92911e-07
3.12757e-08
2.17662e-07
7.40205e-09
2.0773e-07
-4.25103e-09
3.08899e-07
2.63658e-08
3.46367e-07
6.13789e-08
3.05837e-07
3.27277e-09
1.97321e-07
-1.83308e-08
1.84215e-07
-1.25187e-08
2.02066e-07
-2.27409e-08
1.48865e-07
2.62844e-08
7.78888e-08
3.49569e-09
8.24661e-08
6.06605e-08
1.32174e-07
1.0204e-07
1.77954e-07
8.47786e-08
1.99288e-07
1.89331e-07
2.38407e-07
1.05924e-07
2.14124e-07
1.25588e-07
1.94766e-07
6.78587e-08
2.42278e-07
1.17946e-07
3.30544e-07
1.66438e-07
3.53793e-07
8.63747e-08
3.85907e-07
1.56953e-07
5.563e-07
1.58919e-07
6.52704e-07
1.12491e-07
5.15399e-07
-1.24337e-08
3.92924e-07
-8.81358e-08
3.46571e-07
-2.13192e-08
2.60898e-07
-8.43571e-08
1.51687e-07
-5.49208e-08
1.88059e-07
-3.17415e-09
2.26653e-07
-9.53463e-09
1.68248e-07
9.18837e-08
2.1764e-07
9.23613e-08
4.05e-07
1.80913e-07
5.19733e-07
1.61705e-07
5.53885e-07
8.40611e-08
4.85805e-07
3.25382e-08
4.20551e-07
-4.27342e-08
5.00326e-07
-1.23364e-09
5.07534e-07
-8.4275e-08
3.43542e-07
-2.05509e-07
2.51348e-07
-9.87702e-08
2.31413e-07
-1.21327e-07
2.4112e-07
-1.04382e-07
3.61597e-07
-9.48494e-09
3.09159e-07
-6.46927e-08
2.12573e-07
-5.31903e-08
3.63424e-07
1.12446e-08
2.81782e-07
-4.30118e-08
9.83121e-08
-9.31062e-08
1.92945e-07
4.932e-08