/*--------------------------------*- C++ -*----------------------------------*\
| =========                 |                                                 |
| \\      /  F ield         | OpenFOAM: The Open Source CFD Toolbox           |
|  \\    /   O peration     | Version:  2106                                  |
|   \\  /    A nd           | Website:  www.openfoam.com                      |
|    \\/     M anipulation  |                                                 |
\*---------------------------------------------------------------------------*/
FoamFile
{
    version     2.0;
    format      ascii;
    arch        "LSB;label=32;scalar=64";
    class       surfaceScalarField;
    location    "0.006";
    object      phiB;
}
// * * * * * * * * * * * * * * * * * * * * * * * * * * * * * * * * * * * * * //

dimensions      [1 2 -2 0 0 -1 0];

oriented        oriented;

internalField   nonuniform List<scalar> 
319200
(
1.77437e-06
2.03016e-06
8.66019e-07
-4.50455e-07
2.83649e-06
3.90731e-07
1.93559e-06
-3.62527e-07
1.11996e-06
-1.21013e-06
7.23613e-08
-1.18657e-06
-6.42562e-07
-6.82256e-07
-8.84158e-07
-1.84948e-07
-8.0594e-07
1.1284e-07
-6.03046e-07
2.24531e-07
-3.92604e-07
2.27424e-07
-2.289e-07
1.86178e-07
-1.17388e-07
1.39302e-07
-4.77417e-08
1.01159e-07
-1.19799e-08
7.49617e-08
1.13663e-08
6.00501e-08
1.80697e-08
5.07965e-08
2.48298e-08
4.82371e-08
3.03938e-08
4.74728e-08
3.04971e-08
4.82235e-08
3.98671e-08
5.17919e-08
4.76532e-08
5.32747e-08
5.55012e-08
5.63102e-08
7.30512e-08
6.0167e-08
8.71721e-08
6.09647e-08
1.0116e-07
6.31732e-08
1.23759e-07
6.55314e-08
1.41529e-07
6.42489e-08
1.55459e-07
6.38072e-08
1.7673e-07
6.4182e-08
1.93888e-07
6.08404e-08
2.02636e-07
5.73359e-08
2.15299e-07
5.63318e-08
2.28097e-07
5.28682e-08
2.31039e-07
4.75355e-08
2.32674e-07
4.56491e-08
2.3936e-07
4.4631e-08
2.41341e-07
4.0522e-08
2.36489e-07
3.7595e-08
2.35806e-07
3.86969e-08
2.40056e-07
3.88559e-08
2.3908e-07
3.61126e-08
2.34043e-07
3.54812e-08
2.34868e-07
3.81238e-08
2.40248e-07
3.87539e-08
2.40671e-07
3.60706e-08
2.36649e-07
3.50416e-08
2.37078e-07
3.72185e-08
2.42359e-07
3.79422e-08
2.44182e-07
3.50189e-08
2.40528e-07
3.26949e-08
2.38815e-07
3.42575e-08
2.43279e-07
3.65854e-08
2.48919e-07
3.56214e-08
2.50431e-07
3.30397e-08
2.50392e-07
3.33114e-08
2.55094e-07
3.65669e-08
2.64928e-07
3.85721e-08
2.74074e-07
3.69622e-08
2.78801e-07
3.42902e-08
2.8161e-07
3.40925e-08
2.87322e-07
3.59927e-08
2.96028e-07
3.64043e-08
3.02556e-07
3.33274e-08
3.03814e-07
2.87486e-08
3.01615e-07
2.61395e-08
2.99398e-07
2.63186e-08
2.99188e-07
2.67865e-08
2.99287e-07
2.50668e-08
2.96688e-07
2.13858e-08
2.91328e-07
1.83162e-08
2.8547e-07
1.8176e-08
2.82018e-07
2.06185e-08
2.8248e-07
2.31561e-08
2.84906e-07
2.3747e-08
2.86912e-07
2.24313e-08
2.88519e-07
2.09861e-08
2.90527e-07
2.12027e-08
2.93934e-07
2.32358e-08
2.99319e-07
2.5616e-08
3.05653e-07
2.64973e-08
3.11985e-07
2.49569e-08
3.1738e-07
2.17853e-08
3.2001e-07
1.87106e-08
3.20233e-07
1.67895e-08
3.20203e-07
1.60683e-08
3.20097e-07
1.59379e-08
3.1943e-07
1.53911e-08
3.18115e-07
1.38114e-08
3.14751e-07
1.13899e-08
3.09098e-07
8.68517e-09
3.03586e-07
6.50067e-09
2.99349e-07
5.71175e-09
2.95977e-07
6.47595e-09
2.94464e-07
8.15818e-09
2.95071e-07
1.00905e-08
2.96178e-07
1.17358e-08
2.97963e-07
1.25318e-08
3.01531e-07
1.23051e-08
3.05503e-07
1.13728e-08
3.08492e-07
9.96925e-09
3.11039e-07
8.24239e-09
3.12767e-07
6.55627e-09
3.1263e-07
5.09693e-09
3.11424e-07
3.71272e-09
3.1007e-07
2.35029e-09
3.07919e-07
1.07848e-09
3.04583e-07
-1.01484e-10
3.005e-07
-1.12557e-09
2.95966e-07
-1.88656e-09
2.91741e-07
-2.42784e-09
2.88867e-07
-2.79574e-09
2.86823e-07
-2.90629e-09
2.84556e-07
-2.80786e-09
2.82951e-07
-2.72492e-09
2.83115e-07
-2.71363e-09
2.83935e-07
-2.69229e-09
2.84189e-07
-2.82025e-09
2.84468e-07
-3.35299e-09
2.84994e-07
-4.24527e-09
2.84532e-07
-5.3525e-09
2.82721e-07
-6.68096e-09
2.80632e-07
-8.1313e-09
2.78618e-07
-9.43339e-09
2.76018e-07
-1.0486e-08
2.72765e-07
-1.14259e-08
2.69378e-07
-1.23131e-08
2.65858e-07
-1.30087e-08
2.62177e-07
-1.34076e-08
2.59074e-07
-1.35862e-08
2.57053e-07
-1.36944e-08
2.55551e-07
-1.38681e-08
2.53968e-07
-1.42491e-08
2.52375e-07
-1.48998e-08
2.50715e-07
-1.57121e-08
2.48508e-07
-1.65701e-08
2.45723e-07
-1.74874e-08
2.42882e-07
-1.84625e-08
2.40132e-07
-1.93779e-08
2.37079e-07
-2.01403e-08
2.33581e-07
-2.07941e-08
2.30028e-07
-2.1415e-08
2.26781e-07
-2.198e-08
2.23884e-07
-2.2404e-08
2.21374e-07
-2.26662e-08
2.19345e-07
-2.2866e-08
2.17635e-07
-2.31774e-08
2.15825e-07
-2.37585e-08
2.13571e-07
-2.4648e-08
2.10756e-07
-2.57169e-08
2.0741e-07
-2.67555e-08
2.03722e-07
-2.76234e-08
1.99977e-07
-2.83174e-08
1.96336e-07
-2.89211e-08
1.92733e-07
-2.95161e-08
1.89054e-07
-3.01194e-08
1.85318e-07
-3.06823e-08
1.81609e-07
-3.11452e-08
1.78006e-07
-3.15004e-08
1.74674e-07
-3.18029e-08
1.71823e-07
-3.21083e-08
1.69412e-07
-3.24339e-08
1.67089e-07
-3.28076e-08
1.64537e-07
-3.33049e-08
1.61696e-07
-3.39739e-08
1.58554e-07
-3.47611e-08
1.54976e-07
-3.55624e-08
1.50975e-07
-3.62887e-08
1.46985e-07
-3.6871e-08
1.43499e-07
-3.72784e-08
1.40435e-07
-3.75553e-08
1.37154e-07
-3.78224e-08
1.33311e-07
-3.82234e-08
1.29347e-07
-3.88102e-08
1.25811e-07
-3.94493e-08
1.22557e-07
-3.99168e-08
1.19061e-07
-4.01366e-08
1.15289e-07
-4.02386e-08
1.11735e-07
-4.03684e-08
1.0866e-07
-4.0565e-08
1.05722e-07
-4.08362e-08
1.02452e-07
-4.12127e-08
9.88576e-08
-4.16872e-08
9.53233e-08
-4.21795e-08
9.19448e-08
-4.25744e-08
8.83083e-08
-4.27911e-08
8.41623e-08
-4.28573e-08
8.00514e-08
-4.28964e-08
7.68134e-08
-4.29889e-08
7.44648e-08
-4.31038e-08
7.20311e-08
-4.32174e-08
6.86124e-08
-4.34112e-08
6.43067e-08
-4.37609e-08
5.99098e-08
-4.41891e-08
5.5944e-08
-4.45007e-08
5.22658e-08
-4.45474e-08
4.85824e-08
-4.43378e-08
4.50485e-08
-4.4009e-08
4.20866e-08
-4.37044e-08
3.96645e-08
-4.34868e-08
3.70931e-08
-4.33771e-08
3.37418e-08
-4.34232e-08
2.9763e-08
-4.3652e-08
2.58457e-08
-4.39655e-08
2.23445e-08
-4.41679e-08
1.89246e-08
-4.412e-08
1.51125e-08
-4.38368e-08
1.10134e-08
-4.34443e-08
7.31353e-09
-4.30705e-08
4.52801e-09
-4.27668e-08
2.34498e-09
-4.25119e-08
-1.38827e-10
-4.22898e-08
-3.52329e-09
-4.21341e-08
-7.59489e-09
-4.20582e-08
-1.17188e-08
-4.19798e-08
-1.54769e-08
-4.17769e-08
-1.88139e-08
-4.13971e-08
-2.18389e-08
-4.08807e-08
-2.47071e-08
-4.03134e-08
-2.75716e-08
-3.97981e-08
-3.04952e-08
-3.9423e-08
-3.34611e-08
-3.91984e-08
-3.64902e-08
-3.90318e-08
-3.96687e-08
-3.87967e-08
-4.30678e-08
-3.84256e-08
-4.66332e-08
-3.79364e-08
-5.01054e-08
-3.73965e-08
-5.31847e-08
-3.68745e-08
-5.59359e-08
-3.64029e-08
-5.88651e-08
-3.5973e-08
-6.23658e-08
-3.55623e-08
-6.62226e-08
-3.51433e-08
-6.98554e-08
-3.46559e-08
-7.2907e-08
-3.40158e-08
-7.54451e-08
-3.31997e-08
-7.77149e-08
-3.23044e-08
-7.98701e-08
-3.14795e-08
-8.19864e-08
-3.082e-08
-8.4179e-08
-3.03357e-08
-8.65777e-08
-2.99788e-08
-8.92513e-08
-2.96693e-08
-9.22062e-08
-2.93169e-08
-9.54098e-08
-2.88706e-08
-9.87532e-08
-2.83533e-08
-1.02072e-07
-2.78194e-08
-1.05305e-07
-2.72899e-08
-1.08541e-07
-2.67346e-08
-1.11833e-07
-2.60965e-08
-1.15054e-07
-2.53185e-08
-1.17943e-07
-2.43698e-08
-1.20279e-07
-2.3287e-08
-1.22028e-07
-2.21852e-08
-1.23394e-07
-2.12089e-08
-1.24769e-07
-2.04651e-08
-1.26507e-07
-1.99831e-08
-1.28688e-07
-1.96996e-08
-1.31185e-07
-1.94752e-08
-1.33907e-07
-1.91606e-08
-1.3681e-07
-1.86808e-08
-1.39751e-07
-1.80553e-08
-1.42575e-07
-1.73337e-08
-1.45302e-07
-1.65493e-08
-1.47955e-07
-1.57287e-08
-1.503e-07
-1.48908e-08
-1.52034e-07
-1.4017e-08
-1.53227e-07
-1.30896e-08
-1.54251e-07
-1.21798e-08
-1.55319e-07
-1.14232e-08
-1.56569e-07
-1.08983e-08
-1.58389e-07
-1.0581e-08
-1.60996e-07
-1.04025e-08
-1.63968e-07
-1.02698e-08
-1.66823e-07
-1.00376e-08
-1.69637e-07
-9.59306e-09
-1.72517e-07
-8.95179e-09
-1.75189e-07
-8.17072e-09
-1.77505e-07
-7.23206e-09
-1.79482e-07
-6.11265e-09
-1.80674e-07
-4.88992e-09
-1.80495e-07
-3.66119e-09
-1.79339e-07
-2.48459e-09
-1.78217e-07
-1.49566e-09
-1.77355e-07
-8.69387e-10
-1.76651e-07
-6.03953e-10
-1.76864e-07
-5.44603e-10
-1.7855e-07
-6.23863e-10
-1.80934e-07
-8.46456e-10
-1.83377e-07
-1.09151e-09
-1.86418e-07
-1.21644e-09
-1.90265e-07
-1.22476e-09
-1.94177e-07
-1.12228e-09
-1.97709e-07
-8.26826e-10
-2.00799e-07
-3.16728e-10
-2.03131e-07
3.59318e-10
-2.04658e-07
1.22637e-09
-2.0559e-07
2.33015e-09
-2.05395e-07
3.67162e-09
-2.03577e-07
5.32067e-09
-2.00841e-07
7.27554e-09
-1.97648e-07
9.21442e-09
-1.93747e-07
1.06897e-08
-1.9008e-07
1.13666e-08
-1.87895e-07
1.09394e-08
-1.86877e-07
9.29644e-09
-1.87018e-07
6.87967e-09
-1.89401e-07
4.45439e-09
-1.93695e-07
2.71181e-09
-1.98558e-07
2.24641e-09
-2.03586e-07
3.26706e-09
-2.08025e-07
5.20639e-09
-2.10578e-07
7.09222e-09
-2.11667e-07
8.19207e-09
-2.12502e-07
8.2668e-09
-2.13171e-07
7.8095e-09
-2.13781e-07
7.95828e-09
-2.14111e-07
9.57305e-09
-2.12325e-07
1.25221e-08
-2.07598e-07
1.57742e-08
-2.01274e-07
1.7819e-08
-1.94639e-07
1.7637e-08
-1.89075e-07
1.57188e-08
-1.8585e-07
1.37203e-08
-1.84253e-07
1.308e-08
-1.8283e-07
1.39095e-08
-1.81025e-07
1.48102e-08
-1.79303e-07
1.40598e-08
-1.79674e-07
1.13819e-08
-1.83679e-07
8.34182e-09
-1.89778e-07
6.99455e-09
-1.95187e-07
8.04527e-09
-1.98285e-07
1.01089e-08
-1.99299e-07
1.11846e-08
-2.00368e-07
1.09034e-08
-2.0256e-07
1.08539e-08
-2.0386e-07
1.27338e-08
-2.01907e-07
1.62915e-08
-1.96334e-07
1.93616e-08
-1.89519e-07
2.03998e-08
-1.84418e-07
2.02942e-08
-1.80305e-07
2.09493e-08
-1.74409e-07
2.26927e-08
-1.66684e-07
2.3815e-08
-1.59812e-07
2.29252e-08
-1.5598e-07
2.09892e-08
-1.54151e-07
1.99789e-08
-1.51643e-07
2.00813e-08
-1.48498e-07
1.97447e-08
-1.47092e-07
1.83543e-08
-1.4794e-07
1.72973e-08
-1.48606e-07
1.7711e-08
-1.47579e-07
1.87062e-08
-1.465e-07
1.90511e-08
-1.46729e-07
1.91958e-08
-1.47082e-07
2.0081e-08
-1.46371e-07
2.12793e-08
-1.45734e-07
2.18986e-08
-1.4627e-07
2.21378e-08
-1.47152e-07
2.26203e-08
-1.48008e-07
2.32238e-08
-1.49159e-07
2.37382e-08
-1.50179e-07
2.44676e-08
-1.50599e-07
2.54863e-08
-1.50575e-07
2.68135e-08
-1.48963e-07
2.88367e-08
-1.44337e-07
3.13578e-08
-1.38276e-07
3.38436e-08
-1.30688e-07
3.6833e-08
-1.18956e-07
4.05431e-08
-1.0467e-07
4.36909e-08
-9.043e-08
4.64069e-08
-7.33242e-08
4.97171e-08
-5.38089e-08
5.22138e-08
-3.69243e-08
5.33632e-08
-1.95122e-08
5.48834e-08
-9.83547e-10
5.56599e-08
1.25822e-08
5.47331e-08
2.44123e-08
5.42744e-08
3.63173e-08
5.30798e-08
4.12338e-08
5.04186e-08
4.40724e-08
4.82568e-08
4.47563e-08
4.49461e-08
3.6482e-08
3.98442e-08
2.55602e-08
3.4146e-08
3.04874e-09
2.44735e-08
-3.55487e-08
1.05741e-08
-9.49103e-08
-9.81565e-09
-1.95165e-07
-3.97476e-08
-3.48103e-07
-7.85273e-08
-5.79043e-07
-1.24968e-07
-8.94981e-07
-1.67366e-07
-1.26972e-06
-1.83896e-07
-1.58974e-06
-1.3902e-07
-1.6024e-06
1.20061e-09
-9.48381e-07
2.25134e-07
5.25865e-07
3.97132e-07
1.96848e-06
2.12458e-07
1.06926e-06
-5.64541e-07
-3.89365e-07
-1.4155e-06
4.42354e-07
-8.23883e-07
-2.04381e-06
-7.30318e-07
2.69636e-07
1.69192e-06
7.48089e-07
2.08378e-06
2.15899e-07
1.08787e-06
-3.35133e-07
1.1431e-06
-6.51447e-07
5.76763e-07
-6.11262e-07
-1.44443e-07
-3.64276e-07
-5.85718e-07
-1.01266e-07
-6.94119e-07
7.7812e-08
-5.9994e-07
1.61015e-07
-4.33756e-07
1.77478e-07
-2.7565e-07
1.60439e-07
-1.55422e-07
1.33812e-07
-7.38899e-08
1.09211e-07
-2.68901e-08
9.06086e-08
2.28563e-09
7.91537e-08
1.5706e-08
7.18668e-08
2.35681e-08
6.92058e-08
3.05474e-08
6.86277e-08
3.38636e-08
6.9123e-08
4.13606e-08
7.16002e-08
5.08215e-08
7.34061e-08
5.934e-08
7.53783e-08
7.38173e-08
7.83333e-08
8.93472e-08
7.94819e-08
1.03351e-07
8.04356e-08
1.22277e-07
8.18927e-08
1.41228e-07
8.12314e-08
1.56185e-07
7.98668e-08
1.73325e-07
7.92266e-08
1.90431e-07
7.68507e-08
2.01845e-07
7.31493e-08
2.11959e-07
7.07485e-08
2.23016e-07
6.80789e-08
2.29423e-07
6.37361e-08
2.31623e-07
6.04177e-08
2.35217e-07
5.87835e-08
2.3857e-07
5.62142e-08
2.37585e-07
5.31573e-08
2.357e-07
5.21844e-08
2.37012e-07
5.22631e-08
2.38348e-07
5.09506e-08
2.36667e-07
4.94036e-08
2.35389e-07
4.97092e-08
2.37456e-07
5.04009e-08
2.39643e-07
4.92569e-08
2.38877e-07
4.74632e-08
2.37739e-07
4.71678e-08
2.39272e-07
4.75446e-08
2.41659e-07
4.64759e-08
2.41851e-07
4.43615e-08
2.40928e-07
4.34434e-08
2.42281e-07
4.41301e-08
2.46362e-07
4.44845e-08
2.50527e-07
4.34291e-08
2.53452e-07
4.2381e-08
2.57051e-07
4.28612e-08
2.63332e-07
4.41026e-08
2.71309e-07
4.4203e-08
2.78506e-07
4.27489e-08
2.83758e-07
4.11236e-08
2.88139e-07
4.04319e-08
2.9312e-07
4.01537e-08
2.9818e-07
3.88839e-08
3.01339e-07
3.60814e-08
3.01499e-07
3.28538e-08
2.9965e-07
3.06035e-08
2.97534e-07
2.94889e-08
2.95884e-07
2.84786e-08
2.93952e-07
2.67541e-08
2.90972e-07
2.46413e-08
2.87368e-07
2.31364e-08
2.84336e-07
2.29116e-08
2.83115e-07
2.3757e-08
2.84072e-07
2.47672e-08
2.86432e-07
2.5087e-08
2.89225e-07
2.46114e-08
2.92109e-07
2.39692e-08
2.95443e-07
2.37809e-08
2.9971e-07
2.40489e-08
3.0467e-07
2.42459e-08
3.09573e-07
2.37584e-08
3.1397e-07
2.23199e-08
3.17377e-07
2.01628e-08
3.19127e-07
1.77347e-08
3.19258e-07
1.5473e-08
3.18258e-07
1.36687e-08
3.16372e-07
1.2207e-08
3.13943e-07
1.07942e-08
3.11164e-07
9.36305e-09
3.07829e-07
7.94033e-09
3.04166e-07
6.6005e-09
3.00756e-07
5.59176e-09
2.97902e-07
5.11457e-09
2.95968e-07
5.15618e-09
2.95388e-07
5.58927e-09
2.96129e-07
6.19589e-09
2.97819e-07
6.66704e-09
3.00213e-07
6.7599e-09
3.03108e-07
6.4011e-09
3.06023e-07
5.57159e-09
3.08501e-07
4.28755e-09
3.1036e-07
2.72205e-09
3.11314e-07
1.0562e-09
3.11071e-07
-7.08735e-10
3.09694e-07
-2.55017e-09
3.07338e-07
-4.30474e-09
3.0416e-07
-5.84939e-09
3.00509e-07
-7.12961e-09
2.96657e-07
-8.10913e-09
2.92759e-07
-8.81321e-09
2.89249e-07
-9.27987e-09
2.86571e-07
-9.51171e-09
2.84664e-07
-9.56945e-09
2.83284e-07
-9.61763e-09
2.82584e-07
-9.77263e-09
2.82772e-07
-1.00074e-08
2.83398e-07
-1.034e-08
2.83777e-07
-1.09442e-08
2.83726e-07
-1.19174e-08
2.83216e-07
-1.31428e-08
2.82017e-07
-1.44659e-08
2.80086e-07
-1.57925e-08
2.77604e-07
-1.70441e-08
2.74678e-07
-1.82086e-08
2.71439e-07
-1.93134e-08
2.68172e-07
-2.02883e-08
2.65097e-07
-2.10126e-08
2.62274e-07
-2.14791e-08
2.59721e-07
-2.18137e-08
2.57515e-07
-2.21532e-08
2.55696e-07
-2.25539e-08
2.54043e-07
-2.30334e-08
2.52213e-07
-2.36423e-08
2.50088e-07
-2.44261e-08
2.47705e-07
-2.53521e-08
2.4506e-07
-2.63336e-08
2.42204e-07
-2.72829e-08
2.39251e-07
-2.81356e-08
2.36197e-07
-2.8891e-08
2.32948e-07
-2.96084e-08
2.2958e-07
-3.03115e-08
2.26368e-07
-3.09356e-08
2.23571e-07
-3.13999e-08
2.21217e-07
-3.17158e-08
2.19129e-07
-3.20128e-08
2.17097e-07
-3.24571e-08
2.14937e-07
-3.3135e-08
2.12486e-07
-3.40028e-08
2.09648e-07
-3.49341e-08
2.06422e-07
-3.58147e-08
2.0288e-07
-3.66128e-08
1.99166e-07
-3.73601e-08
1.95457e-07
-3.80779e-08
1.91852e-07
-3.87446e-08
1.88325e-07
-3.93283e-08
1.84811e-07
-3.98233e-08
1.81312e-07
-4.02539e-08
1.77908e-07
-4.06487e-08
1.74705e-07
-4.10201e-08
1.71773e-07
-4.13769e-08
1.69125e-07
-4.17376e-08
1.6662e-07
-4.213e-08
1.63951e-07
-4.2609e-08
1.60906e-07
-4.32385e-08
1.5757e-07
-4.40024e-08
1.54107e-07
-4.47734e-08
1.50547e-07
-4.54205e-08
1.46903e-07
-4.59133e-08
1.43286e-07
-4.62997e-08
1.39799e-07
-4.66532e-08
1.36443e-07
-4.70441e-08
1.33082e-07
-4.7498e-08
1.29504e-07
-4.79841e-08
1.25677e-07
-4.84557e-08
1.21871e-07
-4.88599e-08
1.18308e-07
-4.91406e-08
1.14913e-07
-4.93113e-08
1.11589e-07
-4.94781e-08
1.08423e-07
-4.97211e-08
1.05391e-07
-5.0021e-08
1.02217e-07
-5.03446e-08
9.86968e-08
-5.07064e-08
9.49041e-08
-5.11026e-08
9.10585e-08
-5.1468e-08
8.73816e-08
-5.17298e-08
8.39676e-08
-5.1862e-08
8.06828e-08
-5.19003e-08
7.73514e-08
-5.19335e-08
7.40158e-08
-5.20436e-08
7.07816e-08
-5.22412e-08
6.75046e-08
-5.24895e-08
6.39204e-08
-5.27645e-08
6e-08
-5.30371e-08
5.59746e-08
-5.32305e-08
5.21022e-08
-5.32604e-08
4.85119e-08
-5.31131e-08
4.51847e-08
-5.28593e-08
4.20523e-08
-5.26095e-08
3.91184e-08
-5.24567e-08
3.63627e-08
-5.24247e-08
3.35239e-08
-5.24736e-08
3.0218e-08
-5.25649e-08
2.63546e-08
-5.26829e-08
2.22544e-08
-5.27807e-08
1.832e-08
-5.2767e-08
1.47327e-08
-5.25847e-08
1.14364e-08
-5.22663e-08
8.26561e-09
-5.18994e-08
5.09913e-09
-5.157e-08
1.95076e-09
-5.13283e-08
-1.14637e-09
-5.11662e-08
-4.30602e-09
-5.10314e-08
-7.68045e-09
-5.08807e-08
-1.12214e-08
-5.06956e-08
-1.47232e-08
-5.04418e-08
-1.80651e-08
-5.00709e-08
-2.12477e-08
-4.95914e-08
-2.42611e-08
-4.90888e-08
-2.71206e-08
-4.86475e-08
-2.999e-08
-4.82895e-08
-3.30764e-08
-4.79989e-08
-3.64026e-08
-4.77478e-08
-3.9806e-08
-4.74774e-08
-4.31472e-08
-4.71159e-08
-4.64067e-08
-4.66464e-08
-4.95974e-08
-4.61276e-08
-5.27175e-08
-4.56313e-08
-5.57994e-08
-4.51838e-08
-5.89081e-08
-4.47666e-08
-6.20821e-08
-4.43395e-08
-6.53241e-08
-4.3857e-08
-6.85849e-08
-4.32844e-08
-7.17021e-08
-4.26131e-08
-7.44829e-08
-4.18653e-08
-7.69061e-08
-4.10882e-08
-7.91404e-08
-4.03482e-08
-8.13678e-08
-3.97118e-08
-8.3686e-08
-3.92035e-08
-8.6172e-08
-3.8788e-08
-8.89003e-08
-3.84002e-08
-9.18575e-08
-3.79863e-08
-9.4948e-08
-3.75223e-08
-9.80963e-08
-3.70103e-08
-1.01286e-07
-3.64689e-08
-1.04519e-07
-3.59116e-08
-1.07767e-07
-3.53204e-08
-1.10971e-07
-3.46478e-08
-1.14022e-07
-3.3851e-08
-1.16752e-07
-3.29246e-08
-1.19032e-07
-3.19145e-08
-1.20881e-07
-3.09102e-08
-1.2247e-07
-3.00161e-08
-1.24049e-07
-2.93038e-08
-1.25863e-07
-2.87764e-08
-1.28049e-07
-2.83725e-08
-1.30564e-07
-2.80008e-08
-1.33265e-07
-2.75747e-08
-1.36049e-07
-2.7041e-08
-1.38866e-07
-2.63977e-08
-1.4163e-07
-2.5678e-08
-1.44208e-07
-2.49068e-08
-1.46541e-07
-2.40859e-08
-1.48653e-07
-2.32173e-08
-1.5051e-07
-2.2314e-08
-1.52044e-07
-2.13993e-08
-1.53344e-07
-2.0518e-08
-1.54648e-07
-1.97462e-08
-1.56169e-07
-1.91507e-08
-1.58048e-07
-1.87268e-08
-1.60412e-07
-1.84007e-08
-1.63254e-07
-1.80767e-08
-1.66332e-07
-1.76742e-08
-1.6934e-07
-1.71437e-08
-1.72105e-07
-1.647e-08
-1.74551e-07
-1.56488e-08
-1.76557e-07
-1.46565e-08
-1.7799e-07
-1.34926e-08
-1.78801e-07
-1.2236e-08
-1.78968e-07
-1.09961e-08
-1.78574e-07
-9.85306e-09
-1.77957e-07
-8.89623e-09
-1.77483e-07
-8.24473e-09
-1.77285e-07
-7.92826e-09
-1.77525e-07
-7.83275e-09
-1.7857e-07
-7.84835e-09
-1.80589e-07
-7.94206e-09
-1.83374e-07
-8.04275e-09
-1.86736e-07
-8.0092e-09
-1.90577e-07
-7.74967e-09
-1.94554e-07
-7.2466e-09
-1.98129e-07
-6.47336e-09
-2.00956e-07
-5.42526e-09
-2.02867e-07
-4.1748e-09
-2.03702e-07
-2.81669e-09
-2.03497e-07
-1.44657e-09
-2.0243e-07
-1.59961e-10
-2.00599e-07
1.02306e-09
-1.98254e-07
2.13835e-09
-1.95771e-07
3.13171e-09
-1.9328e-07
3.89458e-09
-1.90953e-07
4.40928e-09
-1.89313e-07
4.64947e-09
-1.887e-07
4.49348e-09
-1.89068e-07
3.90829e-09
-1.90532e-07
3.03125e-09
-1.9327e-07
2.06698e-09
-1.97022e-07
1.32309e-09
-2.01309e-07
1.18607e-09
-2.057e-07
1.82581e-09
-2.09525e-07
3.1032e-09
-2.12115e-07
4.74303e-09
-2.13338e-07
6.38213e-09
-2.13304e-07
7.71682e-09
-2.12227e-07
8.7872e-09
-2.10546e-07
9.89871e-09
-2.0826e-07
1.13137e-08
-2.0494e-07
1.30861e-08
-2.00592e-07
1.49095e-08
-1.95663e-07
1.61639e-08
-1.90797e-07
1.64189e-08
-1.86832e-07
1.58094e-08
-1.8428e-07
1.49092e-08
-1.82994e-07
1.43485e-08
-1.8251e-07
1.42958e-08
-1.82473e-07
1.42711e-08
-1.83106e-07
1.36944e-08
-1.85125e-07
1.25415e-08
-1.8867e-07
1.14735e-08
-1.92919e-07
1.13686e-08
-1.96693e-07
1.24895e-08
-1.99009e-07
1.41892e-08
-1.99875e-07
1.56537e-08
-2.0017e-07
1.67634e-08
-2.0014e-07
1.81676e-08
-1.98897e-07
2.04528e-08
-1.95446e-07
2.32172e-08
-1.90025e-07
2.54268e-08
-1.84138e-07
2.65973e-08
-1.7882e-07
2.72528e-08
-1.73669e-07
2.81426e-08
-1.67959e-07
2.91506e-08
-1.62027e-07
2.94451e-08
-1.57238e-07
2.87596e-08
-1.54324e-07
2.78846e-08
-1.52309e-07
2.75862e-08
-1.50124e-07
2.76388e-08
-1.48274e-07
2.7427e-08
-1.47657e-07
2.71117e-08
-1.47757e-07
2.74077e-08
-1.47376e-07
2.84e-08
-1.4651e-07
2.94558e-08
-1.46013e-07
3.03061e-08
-1.45987e-07
3.1321e-08
-1.45835e-07
3.26075e-08
-1.45596e-07
3.37673e-08
-1.45917e-07
3.46289e-08
-1.46753e-07
3.54528e-08
-1.47673e-07
3.63604e-08
-1.4868e-07
3.72965e-08
-1.4952e-07
3.84128e-08
-1.49522e-07
3.97935e-08
-1.48617e-07
4.14122e-08
-1.46556e-07
4.35139e-08
-1.42097e-07
4.61679e-08
-1.35286e-07
4.89774e-08
-1.26926e-07
5.19915e-08
-1.15917e-07
5.55486e-08
-1.01913e-07
5.90461e-08
-8.7006e-08
6.20718e-08
-7.08973e-08
6.52253e-08
-5.25582e-08
6.81029e-08
-3.50615e-08
6.99547e-08
-1.87479e-08
7.1574e-08
-1.86127e-09
7.28516e-08
1.22854e-08
7.28946e-08
2.33931e-08
7.27111e-08
3.3618e-08
7.21534e-08
3.91548e-08
7.05994e-08
4.09152e-08
6.89029e-08
3.97438e-08
6.66397e-08
3.09119e-08
6.30102e-08
1.56517e-08
5.85214e-08
-1.09602e-08
5.13904e-08
-5.58927e-08
4.07061e-08
-1.24915e-07
2.4944e-08
-2.339e-07
1.66641e-09
-3.9446e-07
-2.89851e-08
-6.2136e-07
-6.52902e-08
-9.11392e-07
-9.74557e-08
-1.22487e-06
-1.05141e-07
-1.44958e-06
-5.33019e-08
-1.37843e-06
9.95969e-08
-7.76127e-07
3.68398e-07
3.41188e-07
6.68817e-07
1.1915e-06
7.3802e-07
2.18462e-07
2.98469e-07
2.00213e-07
3.48782e-07
-7.89707e-07
8.08757e-07
4.80123e-07
-2.48593e-07
-5.96477e-07
1.15994e-06
2.01201e-07
1.53273e-06
7.54176e-08
7.71451e-07
-2.03339e-07
1.18323e-06
-3.48054e-07
8.23555e-07
-3.16023e-07
1.18301e-07
-1.81151e-07
-4.06633e-07
-3.2575e-08
-6.10818e-07
7.71973e-08
-5.83402e-07
1.35521e-07
-4.50657e-07
1.53638e-07
-3.02255e-07
1.48242e-07
-1.80044e-07
1.33487e-07
-9.25133e-08
1.17995e-07
-3.83895e-08
1.05184e-07
-4.92196e-09
9.68483e-08
1.31177e-08
9.15428e-08
2.29598e-08
8.92455e-08
3.09308e-08
8.89486e-08
3.63565e-08
8.93469e-08
4.32069e-08
9.10876e-08
5.28137e-08
9.28975e-08
6.22944e-08
9.434e-08
7.49341e-08
9.64044e-08
9.04575e-08
9.75507e-08
1.05052e-07
9.79104e-08
1.2156e-07
9.84795e-08
1.39738e-07
9.79064e-08
1.55551e-07
9.61748e-08
1.70939e-07
9.45632e-08
1.86761e-07
9.23268e-08
1.99418e-07
8.88499e-08
2.09141e-07
8.55636e-08
2.18599e-07
8.26699e-08
2.26164e-07
7.90046e-08
2.29945e-07
7.52964e-08
2.32554e-07
7.27739e-08
2.35506e-07
7.05694e-08
2.36629e-07
6.79257e-08
2.35788e-07
6.59454e-08
2.35691e-07
6.51504e-08
2.36765e-07
6.43086e-08
2.36909e-07
6.28444e-08
2.36066e-07
6.18189e-08
2.3634e-07
6.15737e-08
2.3784e-07
6.09162e-08
2.38545e-07
5.9339e-08
2.3809e-07
5.7874e-08
2.38197e-07
5.71354e-08
2.3957e-07
5.63368e-08
2.40989e-07
5.48389e-08
2.41643e-07
5.32853e-08
2.42605e-07
5.25695e-08
2.45286e-07
5.24794e-08
2.49488e-07
5.20975e-08
2.53926e-07
5.11971e-08
2.58278e-07
5.05047e-08
2.63466e-07
5.04523e-08
2.69924e-07
5.04555e-08
2.76806e-07
4.96737e-08
2.82938e-07
4.81234e-08
2.87744e-07
4.64465e-08
2.91746e-07
4.49731e-08
2.95383e-07
4.34315e-08
2.98114e-07
4.1366e-08
2.99251e-07
3.86651e-08
2.98541e-07
3.58395e-08
2.96571e-07
3.35152e-08
2.94221e-07
3.18177e-08
2.91808e-07
3.0382e-08
2.89466e-07
2.88504e-08
2.87195e-07
2.73865e-08
2.85124e-07
2.6398e-08
2.83962e-07
2.60205e-08
2.84227e-07
2.61051e-08
2.85863e-07
2.63091e-08
2.88591e-07
2.62631e-08
2.91984e-07
2.58324e-08
2.95756e-07
2.51343e-08
2.99847e-07
2.43668e-08
3.04085e-07
2.36202e-08
3.08175e-07
2.27318e-08
3.11931e-07
2.14151e-08
3.15089e-07
1.96047e-08
3.17073e-07
1.74521e-08
3.17627e-07
1.5101e-08
3.1699e-07
1.27383e-08
3.15248e-07
1.05632e-08
3.12611e-07
8.65494e-09
3.09558e-07
7.05131e-09
3.06289e-07
5.72216e-09
3.0308e-07
4.57864e-09
3.00327e-07
3.66087e-09
2.98086e-07
3.03247e-09
2.96547e-07
2.62763e-09
2.96073e-07
2.39334e-09
2.96644e-07
2.30394e-09
2.98038e-07
2.21679e-09
3.00054e-07
1.92994e-09
3.02466e-07
1.3362e-09
3.0493e-07
4.30028e-10
3.07015e-07
-7.83223e-10
3.08503e-07
-2.29367e-09
3.0929e-07
-4.03532e-09
3.09128e-07
-5.91759e-09
3.0791e-07
-7.8341e-09
3.05736e-07
-9.66309e-09
3.02771e-07
-1.13465e-08
2.99337e-07
-1.28425e-08
2.95765e-07
-1.40503e-08
2.92249e-07
-1.49277e-08
2.89069e-07
-1.55479e-08
2.86492e-07
-1.59956e-08
2.8457e-07
-1.63299e-08
2.83272e-07
-1.66183e-08
2.82606e-07
-1.69286e-08
2.82556e-07
-1.73175e-08
2.82828e-07
-1.7859e-08
2.82894e-07
-1.86549e-08
2.8254e-07
-1.97429e-08
2.81852e-07
-2.10059e-08
2.80694e-07
-2.22999e-08
2.78882e-07
-2.36123e-08
2.76511e-07
-2.49537e-08
2.73728e-07
-2.62433e-08
2.70671e-07
-2.7388e-08
2.67598e-07
-2.83384e-08
2.64674e-07
-2.90887e-08
2.61902e-07
-2.96968e-08
2.59344e-07
-3.02421e-08
2.57096e-07
-3.07528e-08
2.55166e-07
-3.12395e-08
2.534e-07
-3.177e-08
2.51492e-07
-3.2446e-08
2.49249e-07
-3.33098e-08
2.46745e-07
-3.42896e-08
2.44117e-07
-3.52613e-08
2.41398e-07
-3.61622e-08
2.3856e-07
-3.70082e-08
2.35532e-07
-3.78311e-08
2.32294e-07
-3.86348e-08
2.29023e-07
-3.93762e-08
2.25988e-07
-3.99843e-08
2.23317e-07
-4.0438e-08
2.20934e-07
-4.08178e-08
2.18671e-07
-4.12564e-08
2.16392e-07
-4.18431e-08
2.1404e-07
-4.25753e-08
2.1155e-07
-4.33864e-08
2.08794e-07
-4.42118e-08
2.05675e-07
-4.50264e-08
2.02209e-07
-4.58325e-08
1.98537e-07
-4.66242e-08
1.94855e-07
-4.73659e-08
1.91284e-07
-4.80144e-08
1.87809e-07
-4.8566e-08
1.84343e-07
-4.90582e-08
1.80851e-07
-4.95253e-08
1.77427e-07
-4.99761e-08
1.74248e-07
-5.03969e-08
1.71392e-07
-5.0772e-08
1.68743e-07
-5.1124e-08
1.66103e-07
-5.15246e-08
1.63298e-07
-5.20406e-08
1.60207e-07
-5.26814e-08
1.56861e-07
-5.34001e-08
1.53422e-07
-5.41037e-08
1.49973e-07
-5.46896e-08
1.46475e-07
-5.51409e-08
1.42938e-07
-5.55417e-08
1.39427e-07
-5.5967e-08
1.35929e-07
-5.64184e-08
1.32414e-07
-5.68756e-08
1.28903e-07
-5.73223e-08
1.25358e-07
-5.77255e-08
1.21723e-07
-5.80609e-08
1.18098e-07
-5.83425e-08
1.14638e-07
-5.85919e-08
1.11343e-07
-5.88235e-08
1.08133e-07
-5.907e-08
1.04972e-07
-5.93596e-08
1.0176e-07
-5.96777e-08
9.83272e-08
-6.00024e-08
9.46453e-08
-6.03392e-08
9.08841e-08
-6.06727e-08
8.72264e-08
-6.09391e-08
8.37602e-08
-6.10944e-08
8.04834e-08
-6.11678e-08
7.72909e-08
-6.12309e-08
7.40368e-08
-6.13482e-08
7.06611e-08
-6.15478e-08
6.7171e-08
-6.18035e-08
6.35452e-08
-6.20562e-08
5.97846e-08
-6.22614e-08
5.59902e-08
-6.23897e-08
5.22878e-08
-6.24026e-08
4.87446e-08
-6.22851e-08
4.54016e-08
-6.20925e-08
4.22776e-08
-6.19156e-08
3.93006e-08
-6.1811e-08
3.6325e-08
-6.17873e-08
3.32172e-08
-6.18262e-08
2.98734e-08
-6.1892e-08
2.62393e-08
-6.19493e-08
2.24058e-08
-6.19767e-08
1.86044e-08
-6.1944e-08
1.50226e-08
-6.18024e-08
1.16835e-08
-6.15405e-08
8.5205e-09
-6.12233e-08
5.44558e-09
-6.09336e-08
2.33128e-09
-6.07019e-08
-9.23522e-10
-6.05202e-08
-4.28116e-09
-6.03761e-08
-7.63642e-09
-6.02347e-08
-1.09805e-08
-6.00316e-08
-1.43532e-08
-5.97283e-08
-1.76823e-08
-5.93444e-08
-2.08451e-08
-5.89214e-08
-2.38507e-08
-5.84908e-08
-2.68134e-08
-5.80867e-08
-2.98039e-08
-5.77408e-08
-3.28568e-08
-5.74467e-08
-3.60346e-08
-5.71604e-08
-3.93447e-08
-5.68414e-08
-4.26747e-08
-5.647e-08
-4.59181e-08
-5.60384e-08
-4.9082e-08
-5.55609e-08
-5.22171e-08
-5.50836e-08
-5.53479e-08
-5.46464e-08
-5.8504e-08
-5.4234e-08
-6.17125e-08
-5.37914e-08
-6.49299e-08
-5.32799e-08
-6.80483e-08
-5.26935e-08
-7.09763e-08
-5.20356e-08
-7.36874e-08
-5.1321e-08
-7.62065e-08
-5.05942e-08
-7.85825e-08
-4.9915e-08
-8.08975e-08
-4.93192e-08
-8.32663e-08
-4.88021e-08
-8.57905e-08
-4.83382e-08
-8.85158e-08
-4.78979e-08
-9.14317e-08
-4.74512e-08
-9.44977e-08
-4.6976e-08
-9.76532e-08
-4.64674e-08
-1.00831e-07
-4.59312e-08
-1.03995e-07
-4.53636e-08
-1.0713e-07
-4.47415e-08
-1.10199e-07
-4.40327e-08
-1.13111e-07
-4.32165e-08
-1.15751e-07
-4.23015e-08
-1.18039e-07
-4.13353e-08
-1.20003e-07
-4.03935e-08
-1.21783e-07
-3.95506e-08
-1.23576e-07
-3.8848e-08
-1.25542e-07
-3.82802e-08
-1.27745e-07
-3.77993e-08
-1.30159e-07
-3.73354e-08
-1.32728e-07
-3.68242e-08
-1.35403e-07
-3.62307e-08
-1.38138e-07
-3.55537e-08
-1.40853e-07
-3.48102e-08
-1.43428e-07
-3.40128e-08
-1.45754e-07
-3.31668e-08
-1.47796e-07
-3.22785e-08
-1.49581e-07
-3.13577e-08
-1.51159e-07
-3.04254e-08
-1.52619e-07
-2.95289e-08
-1.54087e-07
-2.87376e-08
-1.55714e-07
-2.80934e-08
-1.57679e-07
-2.75685e-08
-1.60091e-07
-2.70955e-08
-1.6287e-07
-2.66216e-08
-1.6576e-07
-2.61087e-08
-1.68537e-07
-2.55022e-08
-1.71132e-07
-2.47458e-08
-1.73502e-07
-2.38263e-08
-1.75459e-07
-2.27598e-08
-1.76786e-07
-2.15609e-08
-1.77489e-07
-2.02699e-08
-1.77714e-07
-1.89814e-08
-1.77562e-07
-1.78069e-08
-1.77212e-07
-1.68229e-08
-1.76974e-07
-1.60759e-08
-1.77088e-07
-1.55844e-08
-1.77652e-07
-1.53066e-08
-1.78794e-07
-1.51579e-08
-1.80663e-07
-1.50584e-08
-1.8325e-07
-1.49329e-08
-1.86393e-07
-1.46953e-08
-1.89883e-07
-1.42738e-08
-1.93451e-07
-1.36235e-08
-1.96761e-07
-1.26988e-08
-1.99536e-07
-1.14881e-08
-2.01548e-07
-1.00638e-08
-2.02528e-07
-8.52687e-09
-2.02399e-07
-6.94956e-09
-2.01372e-07
-5.40804e-09
-1.99641e-07
-3.99782e-09
-1.97379e-07
-2.7894e-09
-1.94915e-07
-1.82919e-09
-1.92604e-07
-1.14727e-09
-1.90735e-07
-7.07858e-10
-1.89601e-07
-4.44785e-10
-1.89388e-07
-3.44312e-10
-1.90067e-07
-3.95408e-10
-1.91605e-07
-5.28574e-10
-1.94051e-07
-6.76804e-10
-1.9724e-07
-7.69103e-10
-2.00782e-07
-6.41629e-10
-2.04393e-07
-1.18833e-10
-2.07771e-07
8.68282e-10
-2.10407e-07
2.31188e-09
-2.1193e-07
4.11008e-09
-2.12199e-07
6.03995e-09
-2.11211e-07
7.89129e-09
-2.09239e-07
9.56696e-09
-2.06562e-07
1.10611e-08
-2.03256e-07
1.24615e-08
-1.99478e-07
1.38595e-08
-1.95445e-07
1.51566e-08
-1.91338e-07
1.61004e-08
-1.87535e-07
1.65005e-08
-1.84592e-07
1.63658e-08
-1.82895e-07
1.59575e-08
-1.82462e-07
1.56248e-08
-1.8302e-07
1.55057e-08
-1.84282e-07
1.54935e-08
-1.86193e-07
1.54297e-08
-1.88787e-07
1.53236e-08
-1.91915e-07
1.54905e-08
-1.95144e-07
1.63247e-08
-1.97684e-07
1.78965e-08
-1.98871e-07
1.98902e-08
-1.98803e-07
2.19019e-08
-1.97884e-07
2.38389e-08
-1.96117e-07
2.59496e-08
-1.93169e-07
2.83591e-08
-1.88804e-07
3.07646e-08
-1.83456e-07
3.26882e-08
-1.77938e-07
3.39637e-08
-1.72702e-07
3.48621e-08
-1.67699e-07
3.56924e-08
-1.62724e-07
3.6331e-08
-1.58117e-07
3.64814e-08
-1.54614e-07
3.62346e-08
-1.52258e-07
3.60681e-08
-1.50369e-07
3.62642e-08
-1.48649e-07
3.66484e-08
-1.47424e-07
3.70517e-08
-1.46811e-07
3.76905e-08
-1.46356e-07
3.88036e-08
-1.457e-07
4.02271e-08
-1.45055e-07
4.16478e-08
-1.44772e-07
4.3049e-08
-1.44755e-07
4.45482e-08
-1.44797e-07
4.60511e-08
-1.45138e-07
4.73987e-08
-1.45914e-07
4.86412e-08
-1.4681e-07
4.99036e-08
-1.47633e-07
5.12111e-08
-1.48222e-07
5.26708e-08
-1.48006e-07
5.44001e-08
-1.46607e-07
5.63769e-08
-1.43961e-07
5.86882e-08
-1.39367e-07
6.14852e-08
-1.32347e-07
6.46024e-08
-1.23422e-07
6.78558e-08
-1.12521e-07
7.14346e-08
-9.89926e-08
7.51628e-08
-8.38643e-08
7.85557e-08
-6.80539e-08
8.17961e-08
-5.08327e-08
8.49192e-08
-3.35317e-08
8.7323e-08
-1.75826e-08
8.91927e-08
-1.92992e-09