/*--------------------------------*- C++ -*----------------------------------*\
| =========                 |                                                 |
| \\      /  F ield         | OpenFOAM: The Open Source CFD Toolbox           |
|  \\    /   O peration     | Version:  2106                                  |
|   \\  /    A nd           | Website:  www.openfoam.com                      |
|    \\/     M anipulation  |                                                 |
\*---------------------------------------------------------------------------*/
FoamFile
{
    version     2.0;
    format      ascii;
    arch        "LSB;label=32;scalar=64";
    class       volScalarField;
    location    "0.35";
    object      p;
}
// * * * * * * * * * * * * * * * * * * * * * * * * * * * * * * * * * * * * * //

dimensions      [0 2 -2 0 0 0 0];

internalField   nonuniform List<scalar> 
11200
(
150.133178497
147.204576485
146.090724879
145.563392463
145.196061209
144.901280925
144.639634826
144.391093635
144.146572046
143.90150037
143.653181455
143.399860625
143.140305906
142.873581758
142.598921355
142.315651316
142.023145847
141.720798973
141.408011884
141.084196392
140.748728757
140.400959917
140.040231537
139.66587577
139.277207053
138.873524109
138.454110777
138.018236682
137.565157964
137.094117916
136.604347544
136.095066059
135.565481031
135.014788566
134.442174005
133.846813092
133.227871812
132.584506618
131.915864881
131.221085301
130.499298231
129.749625907
128.971182621
128.16307479
127.324400876
126.45425114
125.551707159
124.615841112
123.645714592
122.640377136
121.598864104
120.520193828
119.403363985
118.247346761
117.051082742
115.813473021
114.533369238
113.209560995
111.840760089
110.42558053
108.962513666
107.449896386
105.885871365
104.268337857
102.594885672
100.862709648
99.0684993241
97.2082947072
95.2772917617
93.2695758448
91.17775794
88.9924785073
86.7015390386
84.2887530521
81.7320345205
78.9997231143
76.0442186173
72.7929439131
69.092169416
64.3288727461
148.340136768
146.981962377
146.190990149
145.690974651
145.299984867
144.976100385
144.69157685
144.4269717
144.171480391
143.918954487
143.665566673
143.408803376
143.146927583
142.878662865
142.603008828
142.31913068
142.026291044
141.723807096
141.411020374
141.087269035
140.751902852
140.404246296
140.043655683
139.669462867
139.280971862
138.877475664
138.458255277
138.022578498
137.569700178
137.098862625
136.609295855
136.100217525
135.570833329
135.020343031
134.447933907
133.852781728
133.234052217
132.590901763
131.922477751
131.227918961
130.506355894
129.756911003
128.9786989
128.170826431
127.332392634
126.462488512
125.560196585
124.624590247
123.654732617
122.649675123
121.608455502
120.53009505
119.413595136
118.257932535
117.062053521
115.824866263
114.545231183
113.221948727
111.853744201
110.439248509
108.97697453
107.46528671
105.902361331
104.286135357
102.614240825
100.883937283
99.0920092218
97.2346192715
95.3071281456
93.3038512337
91.2177198017
89.0397776413
86.7584772158
84.3586826391
81.8199986407
79.1139167966
76.1996388664
73.0193311298
69.470205421
65.3574144785
147.344946715
146.690746022
146.138389542
145.700770614
145.329145264
145.007041579
144.717939315
144.447702531
144.187236177
143.930751357
143.67436309
143.415389692
143.151919148
142.882524524
142.606084778
142.321671315
142.028474522
141.725755811
141.412816879
141.088980854
140.753585653
140.405991691
140.045454919
139.671321701
139.282899955
138.879480121
138.460340894
138.024748987
137.571958946
137.101213302
136.611742941
136.102767783
135.573496938
135.023123001
134.450828133
133.8557905
133.237176976
132.594144461
131.925841181
131.231406757
130.509972543
129.760661922
128.982590598
128.174866717
127.336590888
126.466856035
125.56474701
124.629340048
123.659701781
122.654887908
121.613941448
120.535890178
119.419743368
118.264487482
117.069080616
115.832445388
114.553459981
113.230946624
111.863657585
110.450256947
108.989297665
107.479192652
105.918177809
104.304284618
102.63527552
100.90855647
99.1210859485
97.2692655151
95.3487812201
93.3543946877
91.2796564932
89.1165040137
86.8548425416
84.4817563917
81.9805248188
79.3292880331
76.5000731102
73.4612655609
70.1768886743
66.6239262413
146.795185803
146.4318042
146.031905387
145.662913644
145.325295115
145.017190268
144.731823935
144.461116401
144.198740263
143.940068531
143.681683183
143.421052696
143.156277269
142.885889667
142.608713843
142.3237673
142.030193731
141.727216957
141.414109846
141.09017246
140.754713864
140.407043894
140.046521325
139.672423004
139.284038236
138.88065933
138.46156473
138.026019909
137.573278288
137.102581381
136.613158904
136.104228988
135.574998997
135.024667257
134.452423612
133.85744244
133.238891615
132.595928798
131.927701218
131.23334896
130.512004176
129.762791249
128.984827323
128.177222406
127.339079427
126.469494214
125.567555209
124.632343007
123.66292962
122.658377231
121.617736692
120.540045359
119.424324213
118.269574065
117.074770661
115.838858467
114.560742885
113.239279243
111.87326073
110.461401851
109.002321181
107.494520471
105.936338902
104.325917081
102.661153574
100.939649631
99.1586300604
97.3148429232
95.4044353425
93.4227976309
91.3643729964
89.2224322044
86.9887438324
84.6532662163
82.2039106904
79.6265795211
76.9065282118
74.0340505455
71.0127446749
67.8797904116
146.461138221
146.22934249
145.927929267
145.616950803
145.312109293
145.02008329
144.741104509
144.471974666
144.209010137
143.948920782
143.688946202
143.426849006
143.160836704
142.889460255
142.611522996
142.326007981
142.032022589
141.728757623
141.415457774
141.091400429
140.755880713
140.408202309
140.047668862
139.673569787
139.285207943
138.88186702
138.462820226
138.027330611
137.574650247
137.10402009
136.614669944
136.105818618
135.576673979
135.026432711
134.454280896
133.859394762
133.240939711
132.598073645
131.92994709
131.235700565
130.514468699
129.765378195
128.987548631
128.180092795
127.342116875
126.472720563
125.570996942
124.636032211
123.666905182
122.662686217
121.622436729
120.545206735
119.430032608
118.275933932
117.081909232
115.846930053
114.569934666
113.249819104
111.885425624
110.475535116
109.01884459
107.513942374
105.959290928
104.353195593
102.693762744
100.978850374
99.2060110393
97.3724229595
95.4748068057
93.5093285728
91.471491742
89.3560319298
87.1568408775
84.8670000646
82.4790889081
79.9860984309
77.3838326935
74.6767343288
71.8861628486
69.0628119546
146.257746132
146.081843847
145.840648285
145.573321142
145.296132222
145.01949136
144.747798473
144.481293019
144.21852344
143.95750967
143.696216823
143.432777877
143.165567402
142.893194599
142.614466605
142.328345742
142.033909985
141.730319947
141.41679291
141.09258308
140.756967064
140.409232995
140.048671471
139.674572764
139.286226306
138.882911357
138.46389847
138.02844864
137.575812431
137.105229547
136.615928804
136.107128177
135.578034971
135.027846
134.455747989
133.860918207
133.242525109
132.599728395
131.931679307
131.237522153
130.516392416
129.767417525
128.989719146
128.182412579
127.344607493
126.475408107
125.573913139
124.639215654
123.670402898
122.666555851
121.62674767
120.550043149
119.435496709
118.282149942
117.089028525
115.855138192
114.579461599
113.260945969
111.898500539
110.490975896
109.037156055
107.535748595
105.985369816
104.384503505
102.731482606
101.024457256
99.2613566381
97.4398472462
95.5572893615
93.6106973992
91.5967154229
89.5116320063
87.3514809898
85.1123212564
82.790867987
80.3857695166
77.9000935204
75.3459945111
72.7504204112
70.1604650312
146.134629739
145.979021914
145.772719353
145.536156014
145.280679148
145.017397543
144.752781737
144.489270068
144.227133305
143.965543628
143.703167033
143.438527045
143.170193921
142.89685915
142.617350588
142.33062068
142.035724518
141.731796286
141.418027983
141.093651714
140.757925662
140.410123412
140.049526136
139.675416292
139.287075019
138.883776596
138.464788718
138.029370187
137.576770041
137.106227124
136.616969857
136.108216208
135.579173735
135.029039992
134.457002917
133.862240703
133.243922231
132.601208008
131.933250173
131.239192245
130.518169596
129.76931347
128.991749907
128.184598596
127.346973915
126.477985376
125.576738098
124.642332994
123.673866758
122.670431803
121.63111545
120.554999859
119.441160652
118.288665231
117.096570501
115.863919436
114.589736001
113.273026896
111.912765134
110.507891389
109.057304296
107.559843694
106.014280319
104.419301534
102.773495555
101.075333183
99.3231501331
97.5151327328
95.6493114823
93.7235721585
91.7357006642
89.683491163
87.5649643942
85.3787878007
83.1250301834
80.8064490214
78.4305929782
76.0130604647
73.5807272656
71.1729468313
146.060550405
145.910540121
145.723783825
145.507677373
145.267969857
145.015146786
144.756507468
144.495766689
144.234397025
143.972472097
143.709251066
143.443610527
143.17430999
142.900128237
142.619921778
142.332640789
142.037323795
141.733083484
141.419090329
141.094557181
140.758726079
140.410857692
140.050223081
139.676096683
139.287754763
138.884466619
138.465497169
138.030103163
137.577532276
137.10702255
136.617802006
136.109088545
135.580089931
135.03000396
134.458018737
133.863312952
133.245056331
132.60240984
131.934526568
131.240552941
130.51963053
129.770892655
128.993466088
128.186473971
127.349035408
126.480265782
125.579277332
124.645179584
123.677079653
122.674082667
121.635291974
120.559808492
119.446730554
118.295153248
117.104167527
115.872858602
114.60030346
113.285569444
111.927708296
110.525751059
109.078706874
107.585556032
106.045243969
104.456673759
102.81870094
101.13013013
99.3897158649
97.5961723357
95.7481982605
93.8445288967
91.8840320403
89.8658779697
87.7898209841
85.6566733959
83.4690486207
81.2324799434
78.9570033655
76.6592233576
74.3638200608
72.1027990895
146.018274285
145.868826467
145.692410295
145.488671188
145.259137322
145.013427442
144.759065624
144.500425066
144.239715765
143.977618717
143.713818037
143.447455873
143.17744071
142.902623911
142.621888752
142.334187062
142.038546827
141.734065534
141.419897867
141.09524229
140.759328662
140.41140777
140.050742965
139.676603655
139.288258669
138.884977272
138.466021274
138.030645677
137.578097178
137.10761326
136.618421675
136.109740318
135.58077718
135.030730459
134.458788829
133.864131808
133.245930228
132.603346822
131.935537059
131.241649503
130.520824431
129.772198788
128.994904377
128.188068716
127.350815972
126.482267742
125.581543841
124.647763072
123.680043853
122.677504919
121.639265878
120.564447763
119.452173449
118.301567835
117.111757925
115.881872443
114.611040375
113.298395734
111.943067643
110.544187379
109.100884003
107.612283767
106.077510648
104.495687818
102.865942085
101.187413096
99.459270254
97.6807423895
95.8511665977
93.9700702154
92.0372985692
90.0532186052
88.019025469
85.9372105633
83.8122202048
81.6513495994
79.4658486605
77.2721285109
75.0922335969
72.9523414514
145.998997969
145.849119969
145.677156435
145.479220101
145.25465761
145.012537085
144.76040019
144.5028892
144.242559688
143.980395791
143.716302249
143.449563322
143.179169421
142.904013068
142.622993611
142.335064877
142.039249837
141.734638144
141.420376142
141.095654605
140.759696841
140.411748309
140.051068119
139.676922374
139.288578544
138.885303174
138.466357125
138.030994673
137.578462079
137.10799671
136.618826305
136.110168961
135.58123305
135.031217331
134.459311233
133.864695237
133.24654135
132.60401363
131.936268718
131.242456439
130.521721585
129.773203439
128.99603707
128.189354302
127.35228464
126.483956203
125.583496682
124.650034433
123.68269949
122.680624684
121.642946778
120.568807598
119.457355206
118.307745122
117.119141563
115.890718992
114.621662309
113.311169852
111.958454625
110.562746904
109.123295204
107.639373064
106.110283896
104.535369745
102.914024595
101.245714159
99.5300056834
97.7666126741
95.9554604578
94.096786764
92.1912838904
90.2403211674
88.24623867
86.2127899341
84.1456825522
82.0532612992
79.9472493897
77.8434005688
75.7614050213
73.7231860248
145.999000544
145.849135994
145.677183363
145.479256208
145.254702127
145.012589183
144.760458964
144.502953846
144.242629532
143.980470276
143.716380921
143.449645824
143.179255477
142.904102477
142.623086239
142.335160654
142.039348746
141.734740234
141.42048152
141.095763444
140.759809383
140.411864879
140.051189137
139.677048379
139.288710242
138.885441296
138.466502585
138.031148595
137.578625834
137.108171803
136.619014735
136.110373164
135.581455987
135.031462613
134.459583242
133.864999279
133.246883829
132.60440232
131.936713203
131.242968679
130.5223156
129.77389625
128.996849416
128.190311404
127.353417131
126.485301295
125.585099577
124.651950013
123.6849944
122.683379841
121.646260405
120.572798913
119.462168865
118.313556667
117.126163933
115.899210506
114.631936688
113.323605213
111.973512229
110.58098813
109.145398623
107.666162025
106.14275719
104.574738092
102.961754614
101.303579402
99.6001452263
97.8516016218
96.0583942975
94.2213735181
92.3419688168
90.4224809573
88.4660228725
86.4772171363
84.4625793284
82.431010796
80.3942973257
78.3674560421
76.3683895064
74.4161901752
146.018282065
145.868874919
145.69249169
145.488780262
145.259271735
145.013584514
144.7592426
144.500619551
144.239925747
143.977842532
143.714054337
143.447703592
143.17769903
142.902892237
142.622166686
142.334474393
142.038843522
141.734371741
141.420213912
141.095568686
140.759666136
140.41175729
140.051105756
139.676981341
139.288653265
138.885390975
138.466456776
138.031106248
137.578586783
137.108136687
136.618984817
136.110350357
135.58144288
135.031462534
134.459600366
133.865038765
133.246952008
132.604506921
131.936863631
131.243176342
130.522594331
129.774262903
128.997324478
128.190919773
127.354189042
126.486273473
125.586316641
124.653466138
123.686875347
122.685705421
121.64912746
120.576324952
119.466496409
118.318858525
117.13264961
115.907133932
114.641606088
113.335394322
111.98787261
110.598463327
109.166653869
107.691997455
106.174137906
104.612826955
103.007949826
101.359562369
99.6679510536
97.9337003197
96.1576986284
94.3413216628
92.486545688
90.5960550567
88.6738273421
86.7251201053
84.7569244852
82.7783934592
80.8012000208
78.8397481438
76.9107545691
75.0316589847
146.060563576
145.910622132
145.723921349
145.507861271
145.268196027
145.015410589
144.756804223
144.496092364
144.234748257
143.972846121
143.709645656
143.444023927
143.174740859
142.900575601
142.620384991
142.333119518
142.037818006
141.733593433
141.419616566
141.095100567
140.759287845
140.411439447
140.050826772
139.676725049
139.288410772
138.885154051
138.466220484
138.030867725
137.578344597
137.107890538
136.618735314
136.110098922
135.581191707
135.031214609
134.459359539
133.864809872
133.246741042
132.604321234
131.936712197
131.243070107
130.522546598
129.77428986
128.997445803
128.191159399
127.354576062
126.486843231
125.587112077
124.654539396
123.688289721
122.687537706
121.651470802
120.579292333
119.470224801
118.323513898
117.13843304
115.91428864
114.650426646
113.346238077
112.001170126
110.614736098
109.186526546
107.716228966
106.203643193
104.648709023
103.0515406
101.412451624
99.7319963229
98.0110341437
96.250886011
94.4533662119
92.6209295851
90.7568375597
88.8653987614
86.9522149518
85.0245045311
83.0914391981
81.1644594612
79.2575108813
77.386725305
75.5690163195
146.134648671
145.979139634
145.772916095
145.536418166
145.281000519
145.017771322
144.753201189
144.48972947
144.227627938
143.966069642
143.703721348
143.439107247
143.170798173
142.897486119
142.6179994
142.331290888
142.03641608
141.732509552
141.418763689
141.09441102
140.758710228
140.410935482
140.050368521
139.676292547
139.287989275
138.884733987
138.465795373
138.030433447
137.577898811
137.107432263
136.618264636
136.109616832
135.58070001
135.03071591
134.458857286
133.864308443
133.246245899
132.603839139
131.936251464
131.242640947
130.522161456
129.773963887
128.997197421
128.191010998
127.354554869
126.486982325
125.587451648
124.655128253
123.689187118
122.688815534
121.653216207
120.581610993
119.473244833
118.327390426
117.143353968
115.92048121
114.658165688
113.355856567
112.013070253
110.629401956
109.204542507
107.738296126
106.23060166
104.681558952
103.091459713
101.460843245
99.7905441654
98.0817455967
96.3360589019
94.5556260425
92.7432451865
90.902516155
89.0380203399
87.1555316797
85.2622791682
83.3672461192
81.4815116164
79.6186443057
77.7946541661
76.0269497383
146.257771488
146.082000986
145.84090946
145.573667361
145.296554716
145.01998083
144.748345978
144.481891108
144.21916605
143.958191904
143.696934797
143.433528569
143.166348522
142.894004497
142.615304201
142.329210474
142.034801763
141.731239116
141.417740204
141.093559637
140.757974367
140.410273166
140.049749183
139.675694044
139.287395872
138.884135004
138.465183555
138.029804089
137.577249104
137.10676082
136.617571171
136.108901974
135.579965204
135.029963388
134.458090096
133.863530497
133.245462044
132.603055343
131.935475047
131.241880937
130.521428961
129.773272554
128.996563965
128.190455785
127.354102678
126.486663255
125.587302227
124.655192811
123.68951945
122.68948091
121.654293683
120.5831963
119.475454
118.330363839
117.147261426
115.925528048
114.664599958
113.363978019
112.023240145
110.642055829
109.22020306
107.757588736
106.254274238
104.71050598
103.126750572
101.503736457
99.8425067618
98.1444829503
96.4115397918
94.6460903676
92.8511896954
91.0306549765
89.1892097691
87.3326445897
85.4680204269
83.6039304425
81.7508886354
79.9219750776
78.1332202158
76.4032973869
146.461170684
146.229543918
145.928261384
145.61738813
145.312639798
145.020694756
144.741785634
144.472716266
144.209804864
143.949762784
143.689830885
143.427772839
143.161797062
142.890455306
142.612551629
142.327069745
142.033117614
141.729886475
141.416621281
141.092599737
140.757117538
140.40947802
140.048985729
139.67494138
139.286638341
138.883362009
138.464387943
138.028981177
137.576396005
137.105875969
136.616654009
136.107952762
135.578984957
135.028953863
134.457053827
133.862470901
133.244383536
132.601963451
131.93437649
131.240783779
130.520342796
129.772209001
128.995537245
128.189483304
127.353205745
126.485867919
125.586640246
124.654702815
123.689248331
122.689485682
121.654643493
120.583974923
119.476762981
118.332326233
117.150026085
115.929274955
114.669545353
113.370382362
112.031416987
110.652381833
109.233130323
107.773658904
106.274133771
104.73492251
103.156631518
101.540150247
99.8867020653
98.1979033602
96.4758329343
94.7231086043
92.9429720919
91.1393810801
89.3171097366
87.4818549229
85.6403680349
83.8006429888
81.9723010345
80.1674963574
78.4017444241
76.6949003191
146.795225391
146.432053599
146.032310984
145.663442506
145.325931252
145.017918062
144.732629612
144.461989087
144.199671413
143.941051437
143.682712655
143.42212481
143.157389202
142.887039601
142.609900953
142.324991791
142.031456905
141.728521171
141.415458058
141.091568625
140.756167258
140.408570439
140.048094107
139.674045534
139.285724481
138.882420641
138.463412668
138.027967883
137.575342125
137.104779992
136.615515236
136.106771145
135.577760944
135.027688324
134.45574807
133.861126861
133.243004052
132.600552374
131.932938831
131.239326228
130.518874025
129.770739268
128.994078958
128.188051509
127.351818626
126.484547463
125.585413075
124.653601219
123.688311483
122.688761179
121.654188794
120.583859405
119.477070435
118.333158056
117.151504553
115.93154778
114.672792315
113.374820349
112.037306737
110.660036343
109.242924343
107.786039855
106.289634015
104.754172808
103.180375338
101.569258218
99.922186244
98.2409293247
96.5277251336
94.7853459411
93.0171675754
91.2272365685
89.4203291877
87.6019967921
85.7786037236
83.9573670312
82.1465892045
80.356651518
78.6007694528
76.8975960634
147.344998246
146.691057557
146.138878654
145.701396376
145.329887998
145.007882381
144.718862197
144.448695161
144.188288957
143.931856772
143.675515274
143.416584097
143.153152296
142.88379383
142.607388475
142.323008538
142.029845707
141.727163605
141.414266419
141.090478788
140.755132649
140.407557811
140.047075331
139.673004951
139.284651173
138.881306933
138.46225343
138.026759833
137.574083468
137.103469921
136.614153679
136.105358657
135.576298655
135.026177916
134.45419173
133.859526922
133.241361941
132.598870823
131.931221469
131.237577083
130.517097924
129.768943145
128.992271646
128.18624397
127.350024392
126.482783158
125.583699028
124.651962188
123.686777469
122.687368222
121.652981296
120.582891344
119.476407205
118.332878786
117.151704934
115.932343014
114.67431965
113.377245293
112.040828358
110.664893408
109.249402486
107.794480019
106.300442002
104.767829734
103.197448636
101.590412418
99.9481926686
98.2726731655
96.5662071296
94.8316804144
93.0725665915
91.2929755796
89.4976803802
87.6921098291
85.8822811628
84.0745823373
82.275674077
80.4931157842
78.7340215944
77.0070868591
148.340235659
146.982419349
146.191671756
145.691827983
145.300986801
144.977230222
144.692817754
144.428310816
144.172907734
143.920462194
143.667148491
143.410454225
143.148643142
142.880439178
142.604841932
142.321016261
142.028223956
141.725780585
141.413029018
141.089320711
140.753996182
140.406406038
140.045898343
139.671789681
139.283388314
138.879990555
138.460879252
138.025322547
137.572579456
137.10189709
136.612510549
136.103644087
135.574511778
135.02431814
134.452258829
133.857521602
133.239287821
132.596730364
131.92901728
131.235312688
130.514777955
129.766572813
128.989857183
128.183793008
127.347546272
126.480289296
125.581203338
124.649481672
123.684332961
122.684985004
121.650689788
120.580728352
119.474417133
118.331115329
117.15023302
115.931241333
114.673684313
113.37719089
112.041492226
110.666440174
109.252029008
107.798420825
106.305975176
104.775283239
103.207206975
101.602923519
99.9639744318
98.2923175749
96.5903794559
94.861134505
93.1081306865
91.3355361999
89.5481559693
87.7514073672
85.9511873981
84.1533627541
82.3634629895
80.5862508704
78.8165292146
77.0247913271
150.133344082
147.205245882
146.091717084
145.564645212
145.197544256
144.902969723
144.64151095
144.393143731
144.148786427
143.903872165
143.655706059
143.40253537
143.143129933
142.876556069
142.602048956
142.318937311
142.026597385
141.724424625
141.411816572
141.088165867
140.752867269
140.405280942
140.044737968
139.670573095
139.282104122
138.878631783
138.459442191
138.023810308
137.57099378
137.100238225
136.610778771
136.101839829
135.572635547
135.022370477
134.45024026
133.855432358
133.237126942
132.594497949
131.92671408
131.232939822
130.512336889
129.764065658
128.987286773
128.181162978
127.344861195
126.477554864
125.578426548
124.646671094
123.681499033
122.682140527
121.647850303
120.5779128
119.471648424
118.328421149
117.14764677
115.928802981
114.671441318
113.37520087
112.039824472
110.665177639
109.251270798
107.798285165
106.30660284
104.776841463
103.20989373
101.606971919
99.9696574349
98.2999576382
96.6003695064
94.8738985715
93.1241500637
91.3553609792
89.5724204738
87.7808472839
85.9866874184
84.1964379499
82.4165196934
80.6517161567
78.8815680457
76.9816160112
56.9347960704
53.3826837581
50.9912436162
49.0338335331
47.3618121504
45.9050111412
44.6194471863
43.47541294
42.451232786
41.5301562214
40.6987716329
39.9460680222
39.2628375785
38.6412757583
38.0746976723
37.5573300099
37.084152693
36.6507758897
36.2533422946
35.888448096
35.5530784061
35.244553451
34.9604837466
34.6987321774
34.4573819836
34.2347094119
34.0291605132
33.8393310921
33.6639495223
33.5018617285
33.3520181467
33.2134621526
33.0853199382
32.966791566
32.8571431443
32.7556998754
32.6618399627
32.574988928
32.4946140728
32.420218816
32.3513353338
32.287517914
32.2283721112
32.1737015124
32.1233967908
32.0769719597
32.0340130021
31.9942134003
31.9573444064
31.9231916541
31.8915512874
31.8622321785
31.8350610935
31.8099051736
31.7865823306
31.7649402456
31.7448392681
31.7261688887
31.7088069062
31.6926393264
31.6775651885
31.6634915113
31.6503314634
31.6380065444
31.6264433274
31.6155749505
31.605339943
31.5956820643
31.5865498973
31.5778956176
31.5696751074
31.5618474979
31.5543746588
31.5472247148
31.5403645293
31.5337698884
31.5274077842
31.5212589008
31.5153005622
31.5095121472
31.5038755853
31.4983745109
31.4929948236
31.4877226489
31.4825454154
31.4774542078
31.4724455438
31.4675070364
31.4626275604
31.4578002077
31.4530146807
31.4482659057
31.4435516966
31.4388853202
31.4342468961
31.4296220105
31.4250041527
31.420388819
31.4157722953
31.4111512748
31.4065225699
31.4018828589
31.3972285199
31.3925556686
31.3878604111
31.3831392319
31.378389249
31.3736082746
31.3687947454
31.363947342
31.3590646394
31.3541447214
31.3491851409
31.344182952
31.3391351174
31.3340389155
31.3288924187
31.3236947493
31.3184462171
31.3131480841
31.3078021088
31.3024098499
31.2969707309
31.2914739425
31.2858977168
31.2801718701
31.2747661405
31.2696621214
31.2644870258
31.2592899237
31.2541621856
31.2491785682
31.2443980019
31.2398794049
31.2356883271
31.2318881056
31.2285417316
31.2256961026
31.2233785403
31.2215200672
31.2204858701
31.2198086461
31.2194046429
31.218677003
31.2158982308
31.2067479122
31.1809836725
31.1168000023
30.9728026069
30.6783658049
30.1282166307
29.189570886
27.7299557222
25.6569272368
22.9447458967
19.649666704
15.8901647376
11.6341295655
6.6063023424
1.57138966452
60.1161698197
56.0633364339
53.3513530366
51.1990066796
49.3970806708
47.8471696787
46.4910606539
45.29151777
44.2223631602
43.2639595688
42.4009623376
41.6210217956
40.9139778155
40.2713347313
39.6858972194
39.1515091845
38.6628595379
38.2153341599
37.8049002983
37.4280155664
37.0815529648
36.762742079
36.4691172986
36.1984785515
35.9488541014
35.7184738364
35.5057417838
35.3092177551
35.1275966546
34.9596951948
34.8044362846
34.6608389399
34.5280062826
34.405118038
34.2914209318
34.1862238166
34.0888902381
33.9988348784
33.9155185869
33.8384462842
33.767164519
33.7012603908
33.640346406
33.583998541
33.5317955894
33.4834657108
33.4387623653
33.3974206498
33.3591843956
33.323813259
33.2910848915
33.2607929798
33.2327422762
33.2067469651
33.1826462998
33.1602893523
33.1395289067
33.1202324116
33.1022857212
33.0855825304
33.0700209068
33.0555053762
33.0419450996
33.0292609883
33.0173750978
33.0062158054
32.9957175464
32.9858223592
32.9764746418
32.9676278516
32.959232283
32.9512474386
32.9436318339
32.9363557993
32.9293835252
32.9226918346
32.916242449
32.9100171585
32.9039911177
32.8981427079
32.8924547407
32.8869085243
32.8814897637
32.87618607
32.8709844774
32.8658706116
32.8608257194
32.8558418765
32.8509136319
32.84603282
32.8411936782
32.8363896978
32.8316121062
32.8268516527
32.8221041405
32.8173683873
32.8126405067
32.807916908
32.8031938114
32.7984680089
32.7937366495
32.7889964495
32.7842437706
32.7794750795
32.7746861536
32.7698739015
32.765034914
32.7601675856
32.7552696144
32.7503402848
32.7453773631
32.7403795341
32.7353436272
32.7302672312
32.7251467993
32.7199802543
32.7147654246
32.7095023049
32.7041915992
32.6988359915
32.6934390449
32.6880059952
32.6825433275
32.6770585919
32.671574389
32.6660971753
32.6606685965
32.6551678157
32.6496782238
32.6444741418
32.6393770893
32.6344458375
32.6297756422
32.625431101
32.6214876521
32.6180242685
32.61512506
32.6128252812
32.6112276638
32.6103209315
32.610190952
32.6106467864
32.6114341989
32.6117245986
32.6092663225
32.5987612977
32.5679803126
32.4918557039
32.3240211689
31.9875063631
31.3709043106
30.3384224222
28.7606961767
26.5551085045
23.707808148
20.2795310719
16.3867595417
12.0126848339
6.89581607235
1.70507461632
62.3235916156
58.3901410936
55.5229933541
53.2390773353
51.3371372567
49.7106987648
48.2947294616
47.0472125043
45.938721422
44.9473911276
44.0563192886
43.2520477832
42.5236148091
41.8619370361
41.2593830416
40.7094693514
40.2066362219
39.7460785351
39.3236148702
38.9355855188
38.5787695755
38.2503202471
37.9477087789
37.6686820049
37.4112228556
37.1735218212
36.9539483158
36.7510311463
36.5634373225
36.3899579966
36.2294926995
36.0810387455
35.9436791283
35.8165748467
35.6989552479
35.5901127625
35.4893955126
35.3962031419
35.3099812439
35.2302181128
35.1564396557
35.0882076756
35.0251255708
34.9668192666
34.9127376138
34.862645658
34.8163510171
34.7735496212
34.7339658394
34.6973505754
34.6634745835
34.6321254524
34.6031059875
34.5762335681
34.5513377988
34.5282578357
34.5068453941
34.4869602094
34.4684775616
34.4512850781
34.4352772037
34.4203550231
34.4064242054
34.3933980853
34.3811966266
34.3697499279
34.3589910084
34.3488603914
34.3392999939
34.3302614789
34.3216927489
34.3135511422
34.3057933834
34.2983877067
34.2912919165
34.2844858529
34.2779357211
34.2716173171
34.2655047129
34.2595765565
34.2538143848
34.2481983422
34.2427135976
34.2373450514
34.2320701007
34.2268872037
34.2217877387
34.2167604268
34.2117948072
34.2068811899
34.2020126104
34.1971816017
34.1923818385
34.1876075918
34.1828512834
34.1781074859
34.1733705197
34.1686360616
34.1639002206
34.1591596022
34.1544110682
34.1496512178
34.1448763257
34.1400828974
34.135266677
34.1304246033
34.1255532757
34.12065103
34.1157154751
34.1107457998
34.1057397698
34.1006960777
34.0956117854
34.0904847263
34.08531175
34.0800911596
34.0748212579
34.0695023904
34.0641357308
34.0587244316
34.053272706
34.0477866044
34.0422738432
34.0367437572
34.0312154122
34.0256923333
34.0201890795
34.0147405497
34.0094304811
34.0041295025
33.999009431
33.9940468754
33.9894377501
33.9852296377
33.9814975353
33.9783346395
33.9758572704
33.974024765
33.973027513
33.972886107
33.973603065
33.9750294102
33.976783728
33.9777772834
33.9751895515
33.9626834509
33.9260188202
33.8368610618
33.6440779028
33.264845191
32.5824630385
31.4590879954
29.7689101062
27.4384223518
24.4638892152
20.9087205587
16.8860875971
12.3937257862
7.1849068223
1.83654111034
64.1277644321
60.4030501277
57.499070488
55.1439101516
53.1738494678
51.4895507502
50.0258504597
48.7388657381
47.5973437308
46.5779550291
45.6626800235
44.8372240506
44.0900018719
43.4114646603
42.7936322463