/*--------------------------------*- C++ -*----------------------------------*\
| =========                 |                                                 |
| \\      /  F ield         | OpenFOAM: The Open Source CFD Toolbox           |
|  \\    /   O peration     | Version:  2106                                  |
|   \\  /    A nd           | Website:  www.openfoam.com                      |
|    \\/     M anipulation  |                                                 |
\*---------------------------------------------------------------------------*/
FoamFile
{
    version     2.0;
    format      ascii;
    arch        "LSB;label=32;scalar=64";
    class       surfaceScalarField;
    location    "0.075";
    object      phi;
}
// * * * * * * * * * * * * * * * * * * * * * * * * * * * * * * * * * * * * * //

dimensions      [0 3 -1 0 0 0 0];

oriented        oriented;

internalField   nonuniform List<scalar> 
799
(
1.77389e-32
4.54732e-32
5.85633e-32
4.76118e-32
2.22592e-32
-4.46695e-32
-1.04338e-31
-1.50502e-31
-1.60835e-31
-1.23356e-31
-6.78428e-32
-5.85255e-33
3.23316e-32
4.17786e-32
1.98916e-32
-1.96436e-32
-7.08471e-32
-1.2352e-31
-1.63815e-31
-1.91764e-31
-1.83574e-31
-1.4742e-31
-8.61869e-32
-1.53563e-32
2.52974e-32
3.44568e-32
-7.15077e-33
-7.77233e-32
-1.43977e-31
-1.96538e-31
-1.99361e-31
-1.72044e-31
-1.25706e-31
-7.06602e-32
-4.57796e-32
-3.47174e-32
-5.19381e-32
-8.98674e-32
-1.19783e-31
-1.56521e-31
-1.65535e-31
-1.53104e-31
-1.29689e-31
-8.30249e-32
-5.78327e-32
-4.75765e-32
-6.35248e-32
-1.12522e-31
-1.52511e-31
-1.88836e-31
-1.90799e-31
-1.56984e-31
-1.1383e-31
-5.95453e-32
-3.51446e-32
-4.13089e-32
-7.44146e-32
-1.33501e-31
-1.78895e-31
-2.04033e-31
-1.90846e-31
-1.37677e-31
-7.55557e-32
-2.05973e-32
-7.75638e-33
-4.84672e-32
-1.22229e-31
-2.05707e-31
-2.51093e-31
-2.33531e-31
-1.62099e-31
-6.02884e-32
1.62245e-32
3.28371e-32
-1.41526e-32
-1.0783e-31
-1.94224e-31
-2.38731e-31
-2.27079e-31
-1.67676e-31
-1.01272e-31
-5.20983e-32
-3.65583e-32
-5.13832e-32
-7.53162e-32
-1.01068e-31
-1.20452e-31
-1.38391e-31
-1.58492e-31
-1.70552e-31
-1.68381e-31
-1.37057e-31
-8.4301e-32
-3.06975e-32
2.15915e-33
-1.65389e-32
-7.49433e-32
-1.56532e-31
-2.25707e-31
-2.38883e-31
-2.03424e-31
-1.17468e-31
-2.64593e-32
2.69593e-32
3.61744e-32
-2.15919e-32
-1.00675e-31
-1.7428e-31
-2.1803e-31
-2.00856e-31
-1.56841e-31
-9.39062e-32
-4.7095e-32
-3.83471e-32
-4.96277e-32
-8.00916e-32
-9.6781e-32
-9.4137e-32
-8.1254e-32
-6.72205e-32
-7.70018e-32
-1.07358e-31
-1.48756e-31
-1.79443e-31
-1.7789e-31
-1.43085e-31
-8.35876e-32
-2.40019e-32
1.39337e-32
1.94154e-32
-1.04135e-32
-6.2674e-32
-1.23525e-31
-1.78744e-31
-2.10509e-31
-2.13146e-31
-1.79333e-31
-1.151e-31
-4.12656e-32
2.36027e-32
4.89775e-32
2.64987e-32
-3.66249e-32
-1.20741e-31
-1.85506e-31
-2.11931e-31
-1.88371e-31
-1.28065e-31
-6.52701e-32
-2.19059e-32
-2.10721e-32
-5.55977e-32
-1.02558e-31
-1.39615e-31
-1.40102e-31
-1.07169e-31
-5.63323e-32
-1.45739e-32
-1.17286e-32
-5.17338e-32
-1.22816e-31
-1.89625e-31
-2.16533e-31
-1.85599e-31
-1.0538e-31
-1.5996e-32
4.21147e-32
3.42176e-32
-3.22714e-32
-1.22217e-31
-1.92972e-31
-1.99858e-31
-1.53457e-31
-7.5986e-32
-1.3304e-32
-6.89272e-33
-4.28632e-32
-1.11745e-31
-1.61356e-31
-1.63536e-31
-1.27316e-31
-5.6375e-32
-6.95291e-33
6.44265e-33
-2.26869e-32
-9.0114e-32
-1.46145e-31
-1.82671e-31
-1.75066e-31
-1.28092e-31
-7.28513e-32
-1.70417e-32
5.84098e-33
-2.86444e-33
-3.4605e-32
-8.33664e-32
-1.21213e-31
-1.45709e-31
-1.4979e-31
-1.32513e-31
-1.06429e-31
-7.14069e-32
-3.819e-32
-1.62741e-32
-9.67404e-33
-2.88667e-32
-6.85766e-32
-1.14963e-31
-1.51571e-31
-1.54685e-31
-1.20657e-31
-6.25291e-32
-5.27976e-33
1.58062e-32
-1.26168e-32
-8.03519e-32
-1.55533e-31
-1.92667e-31
-1.66527e-31
-8.37659e-32
1.93624e-32
8.63614e-32
7.67874e-32
-9.37161e-33
-1.38056e-31
-2.42333e-31
-2.66783e-31
-1.99237e-31
-6.24332e-32
7.21727e-32
1.41274e-31
1.1694e-31
4.23394e-33
-1.3146e-31
-2.30558e-31
-2.51107e-31
-1.80597e-31
-6.72368e-32
4.31198e-32
1.01925e-31
8.49343e-32
1.67496e-32
-7.35865e-32
-1.40965e-31
-1.56685e-31
-1.23513e-31
-5.84836e-32
4.09712e-33
3.52054e-32
2.54268e-32
-1.09974e-32
-4.99057e-32
-6.07812e-32
-3.28913e-32
1.49395e-32
6.07191e-32
6.83645e-32
3.03958e-32
-2.86001e-32
-8.08687e-32
-8.28218e-32
-2.67238e-32
6.15876e-32
1.49536e-31
1.903e-31
1.71543e-31
1.15743e-31
5.05045e-32
1.78991e-32
3.22894e-32
7.60366e-32
1.36562e-31
1.83155e-31
2.08984e-31
2.28074e-31
2.37712e-31
2.56115e-31
2.76329e-31
2.88677e-31
3.0337e-31
3.12603e-31
3.3282e-31
3.65781e-31
4.00147e-31
4.34988e-31
4.57028e-31
4.77231e-31
5.12024e-31
5.73246e-31
6.6265e-31
7.56592e-31
8.23946e-31
8.40361e-31
8.13475e-31
7.75183e-31
7.77203e-31
8.5454e-31
1.00079e-30
1.18248e-30
1.33348e-30
1.41559e-30
1.42634e-30
1.39805e-30
1.39824e-30
1.46144e-30
1.5995e-30
1.78183e-30
1.95284e-30
2.08652e-30
2.1691e-30
2.2316e-30
2.31332e-30
2.4323e-30
2.59753e-30
2.77719e-30
2.94614e-30
3.09232e-30
3.21533e-30
3.34915e-30
3.51151e-30
3.71378e-30
3.94995e-30
4.18522e-30
4.40572e-30
4.59709e-30
4.77111e-30
4.96303e-30
5.18747e-30
5.46692e-30
5.78546e-30
6.1112e-30
6.42447e-30
6.69307e-30
6.93496e-30
7.1751e-30
7.44411e-30
7.78438e-30
8.1839e-30
8.62974e-30
9.07838e-30
9.47725e-30
9.81166e-30
1.00845e-29
1.0299e-29
1.06739e-29
1.11586e-29
1.24707e-29
1.4847e-29
1.84165e-29
2.5248e-29
2.78871e-29
3.06314e-29
1.3518e-29
-2.92731e-29
-8.06843e-29
-1.8631e-28
-1.76979e-28
-1.16212e-28
1.71788e-28
8.16002e-28
1.18136e-27
1.82383e-27
1.06223e-27
-7.55641e-28
-3.03093e-27
-7.53731e-27
-7.20769e-27
-5.92535e-27
1.75403e-27
1.68821e-26
2.26737e-26
3.30545e-26
1.6654e-26
-1.36053e-26
-4.10016e-26
-9.04899e-26
-7.13168e-26
-4.21892e-26
3.15758e-26
1.5463e-25
1.62741e-25
1.92003e-25
5.43169e-26
-1.45595e-25
-2.41557e-25
-4.15705e-25
-2.36518e-25
-3.16377e-26
2.1916e-25
5.89201e-25
4.55162e-25
3.8304e-25
-3.70784e-26
-5.43996e-25
-5.80044e-25
-7.54246e-25
-2.54572e-25
2.23634e-25
5.06854e-25
9.15298e-25
5.06864e-25
2.23649e-25
-2.54559e-25
-7.54241e-25
-5.80049e-25
-5.44009e-25
-3.70924e-26
3.83031e-25
4.5516e-25
5.89205e-25
2.19167e-25
-3.16319e-26
-2.36516e-25
-4.15707e-25
-2.41562e-25
-1.45599e-25
5.43133e-26
1.92002e-25
1.62741e-25
1.5463e-25
3.15762e-26
-4.21894e-26
-7.13174e-26
-9.04906e-26
-4.10026e-26
-1.36061e-26
1.66531e-26
3.30536e-26
2.26728e-26
1.68812e-26
1.75333e-27
-5.92595e-27
-7.20821e-27
-7.53778e-27
-3.03142e-27
-7.56145e-28
1.06167e-27
1.82325e-27
1.18076e-27
8.15421e-28
1.7128e-28
-1.16638e-28
-1.77305e-28
-1.86568e-28
-8.0941e-29
-2.95737e-29
1.31121e-29
3.01434e-29
2.73669e-29
2.47692e-29
1.80657e-29
1.46328e-29
1.23767e-29
1.11121e-29
1.05866e-29
1.0127e-29
9.80155e-30
9.45236e-30
9.10182e-30
8.74111e-30
8.38966e-30
8.05657e-30
7.75581e-30
7.47963e-30
7.20449e-30
6.90932e-30
6.57973e-30
6.22468e-30
5.87964e-30
5.57152e-30
5.32693e-30
5.13898e-30
4.97817e-30
4.81862e-30
4.62436e-30
4.39748e-30
4.14555e-30
3.88895e-30
3.65917e-30
3.46213e-30
3.31146e-30
3.19574e-30
3.0951e-30
2.99242e-30
2.86062e-30
2.69496e-30
2.50532e-30
2.31422e-30
2.15587e-30
2.05272e-30
1.99849e-30
1.9745e-30
1.93755e-30
1.85257e-30
1.72057e-30
1.54822e-30
1.3867e-30
1.2722e-30
1.21518e-30
1.22029e-30
1.23558e-30
1.23025e-30
1.17689e-30
1.06244e-30
9.26407e-31
7.94334e-31
7.07797e-31
6.88448e-31
7.18109e-31
7.72644e-31
8.02699e-31
7.71406e-31
6.73413e-31
5.28838e-31
3.87909e-31
3.05648e-31
3.06737e-31
3.83043e-31
4.87515e-31
5.54999e-31
5.46242e-31
4.51848e-31
3.10314e-31
1.79301e-31
1.06716e-31
1.13428e-31
1.76668e-31
2.58935e-31
3.12118e-31
3.16406e-31
2.72537e-31
1.98803e-31
1.31368e-31
8.1679e-32
6.91823e-32
8.36416e-32
1.10205e-31
1.4049e-31
1.4536e-31
1.3529e-31
1.03681e-31
6.72016e-32
5.16018e-32
4.71988e-32
7.16769e-32
9.31316e-32
9.54501e-32
8.00532e-32
3.11722e-32
-7.72328e-33
-2.75737e-32
-1.64833e-32
3.24248e-32
7.51686e-32
1.04572e-31
9.84797e-32
5.80514e-32
1.68745e-32
-2.04299e-32
-3.28136e-32
-2.83337e-32
-2.70909e-32
-2.46925e-32
-2.78884e-32
-1.58834e-32
2.46775e-32
7.71051e-32
1.26841e-31
1.29438e-31
6.63107e-32
-4.1415e-32
-1.61603e-31
-2.20367e-31
-1.84381e-31
-6.23059e-32
1.07836e-31
2.29587e-31
2.52591e-31
1.56987e-31
-2.64471e-32
-1.96449e-31
-2.90125e-31
-2.52958e-31
-9.97075e-32
8.36166e-32
2.29548e-31
2.55168e-31
1.5718e-31
-7.9076e-33
-1.7635e-31
-2.52455e-31
-2.18876e-31
-9.79949e-32
5.72784e-32
1.57878e-31
1.80408e-31
1.17549e-31
6.53312e-33
-8.79759e-32
-1.46115e-31
-1.42491e-31
-9.81886e-32
-4.27143e-32
1.4708e-32
4.7101e-32
6.4548e-32
6.36369e-32
4.2936e-32
1.51863e-32
-2.60836e-32
-6.19429e-32
-8.78375e-32
-9.69913e-32
-8.32946e-32
-5.70361e-32
-1.7696e-32
1.97017e-32
5.21235e-32
6.74692e-32
5.95428e-32
3.19418e-32
-1.84094e-32
-6.4402e-32
-1.01396e-31
-1.11093e-31
-8.72206e-32
-5.15848e-32
-2.40741e-34
3.51951e-32
5.2787e-32
5.50244e-32
2.93268e-32
1.76192e-33
-3.58735e-32
-6.92815e-32
-8.37795e-32
-8.70069e-32
-6.11861e-32
-2.41919e-32
1.49726e-32
4.65293e-32
4.97409e-32
3.39274e-32
-1.30527e-33
-4.00654e-32
-6.66424e-32
-7.77745e-32
-6.58881e-32
-3.98517e-32
-7.37571e-33
2.04269e-32
3.3779e-32
2.8033e-32
7.83914e-33
-1.69121e-32
-3.5887e-32
-3.60209e-32
-2.73713e-32
-1.35026e-32
-9.00241e-33
-2.18999e-32
-3.28552e-32
-3.9623e-32
-1.93797e-32
2.01166e-32
5.35755e-32
6.78228e-32
3.33457e-32
-2.79264e-32
-9.00538e-32
-1.20052e-31
-8.77562e-32
-1.67706e-32
6.81478e-32
1.16699e-31
1.02623e-31
3.85186e-32
-5.08295e-32
-1.0932e-31
-1.14573e-31
-6.40793e-32
1.62779e-32
7.60562e-32
9.40486e-32
5.67682e-32
-9.20384e-33
-6.39469e-32
-8.44141e-32
-5.22198e-32
7.1583e-33
6.27266e-32
8.74811e-32
6.03531e-32
2.42566e-33
-6.16751e-32
-1.01007e-31
-8.98642e-32
-4.03411e-32
3.11459e-32
9.38169e-32
1.16341e-31
9.86971e-32
4.27504e-32
-2.88197e-32
-8.48899e-32
-1.15873e-31
-1.04716e-31
-5.8692e-32
4.01201e-33
7.33335e-32
1.18649e-31
1.30894e-31
1.03683e-31
3.6701e-32
-4.13789e-32
-1.11715e-31
-1.42672e-31
-1.17161e-31
-4.57258e-32
5.29992e-32
1.33938e-31
1.64047e-31
1.29896e-31
4.13672e-32
-5.8458e-32
-1.26925e-31
-1.32796e-31
-7.25289e-32
2.17136e-32
1.06241e-31
1.42152e-31
1.11695e-31
3.58908e-32
-4.8723e-32
-1.0137e-31
-9.24981e-32
-3.52618e-32
4.71717e-32
1.12474e-31
1.24617e-31
9.0436e-32
1.64659e-32
-5.19894e-32
-8.04738e-32
-6.77972e-32
-5.46483e-33
5.95655e-32
1.02496e-31
1.1109e-31
6.87211e-32
1.76132e-32
-3.06391e-32
-5.29698e-32
-3.33306e-32
-1.59491e-34
4.49908e-32
7.58026e-32
8.14495e-32
7.339e-32
4.90623e-32
2.71322e-32
1.41315e-32
6.97548e-33
9.09325e-33
1.16183e-32
9.89522e-33
1.11607e-32
1.13667e-32
2.12731e-32
4.42069e-32
6.82381e-32
9.75168e-32
1.06208e-31
9.23675e-32
5.73777e-32
-5.50696e-34
-4.40647e-32
-6.97345e-32
-5.47279e-32
-1.07882e-33
6.32318e-32
1.26701e-31
1.50427e-31
1.35408e-31
8.37712e-32
2.03013e-32
-2.85374e-32
-4.88818e-32
-2.74182e-32
3.4742e-33
5.24515e-32
7.30514e-32
7.3903e-32
6.71006e-32
2.24982e-32
1.33122e-32
-1.89531e-32
-2.49551e-32
-4.83248e-33
)
;

boundaryField
{
    left
    {
        type            calculated;
        value           uniform 0;
    }
    right
    {
        type            calculated;
        value           uniform 0;
    }
    empty
    {
        type            empty;
        value           nonuniform List<scalar> 0();
    }
}


// ************************************************************************* //
