/*--------------------------------*- C++ -*----------------------------------*\
| =========                 |                                                 |
| \\      /  F ield         | OpenFOAM: The Open Source CFD Toolbox           |
|  \\    /   O peration     | Version:  2106                                  |
|   \\  /    A nd           | Website:  www.openfoam.com                      |
|    \\/     M anipulation  |                                                 |
\*---------------------------------------------------------------------------*/
FoamFile
{
    version     2.0;
    format      ascii;
    arch        "LSB;label=32;scalar=64";
    class       surfaceScalarField;
    location    "0.125";
    object      phi;
}
// * * * * * * * * * * * * * * * * * * * * * * * * * * * * * * * * * * * * * //

dimensions      [0 3 -1 0 0 0 0];

oriented        oriented;

internalField   nonuniform List<scalar> 
799
(
1.64607e-32
4.29142e-32
5.47265e-32
4.25059e-32
1.58844e-32
-5.23176e-32
-1.13253e-31
-1.60677e-31
-1.72268e-31
-1.3604e-31
-8.17732e-32
-2.10225e-32
1.59296e-32
2.41536e-32
1.05127e-33
-3.96908e-32
-9.20926e-32
-1.45957e-31
-1.87434e-31
-2.16554e-31
-2.09523e-31
-1.74514e-31
-1.14415e-31
-4.47041e-32
-5.15939e-33
2.90789e-33
-3.9781e-32
-1.11423e-31
-1.7873e-31
-2.32329e-31
-2.36173e-31
-2.09862e-31
-1.64518e-31
-1.10447e-31
-8.65274e-32
-7.6408e-32
-9.4556e-32
-1.33394e-31
-1.64204e-31
-2.01815e-31
-2.11688e-31
-2.00098e-31
-1.77505e-31
-1.31647e-31
-1.07243e-31
-9.77545e-32
-1.14454e-31
-1.64183e-31
-2.04884e-31
-2.41906e-31
-2.44547e-31
-2.11394e-31
-1.6888e-31
-1.15219e-31
-9.14218e-32
-9.81714e-32
-1.31843e-31
-1.91481e-31
-2.37409e-31
-2.63063e-31
-2.5038e-31
-1.97692e-31
-1.36033e-31
-8.15234e-32
-6.91138e-32
-1.10239e-31
-1.84397e-31
-2.68258e-31
-3.14008e-31
-2.96795e-31
-2.25692e-31
-1.24199e-31
-4.79914e-32
-3.16665e-32
-7.8924e-32
-1.72852e-31
-2.59486e-31
-3.04219e-31
-2.92793e-31
-2.33596e-31
-1.67387e-31
-1.1839e-31
-1.03016e-31
-1.17993e-31
-1.42068e-31
-1.67947e-31
-1.87443e-31
-2.0549e-31
-2.25689e-31
-2.37836e-31
-2.35741e-31
-2.04481e-31
-1.51778e-31
-9.82209e-32
-6.54019e-32
-8.413e-32
-1.42552e-31
-2.24152e-31
-2.9333e-31
-3.06503e-31
-2.71028e-31
-1.8505e-31
-9.40132e-32
-4.05589e-32
-3.13009e-32
-8.90186e-32
-1.68049e-31
-2.41601e-31
-2.85287e-31
-2.6804e-31
-2.2395e-31
-1.60936e-31
-1.14038e-31
-1.05201e-31
-1.16393e-31
-1.4676e-31
-1.63349e-31
-1.60598e-31
-1.47605e-31
-1.33458e-31
-1.43123e-31
-1.73358e-31
-2.14631e-31
-2.45189e-31
-2.43504e-31
-2.08566e-31
-1.48928e-31
-8.91991e-32
-5.11177e-32
-4.54884e-32
-7.51651e-32
-1.27272e-31
-1.87965e-31
-2.43019e-31
-2.74618e-31
-2.77088e-31
-2.43105e-31
-1.78696e-31
-1.04684e-31
-3.96329e-32
-1.40716e-32
-3.63597e-32
-9.92895e-32
-1.83206e-31
-2.47769e-31
-2.73985e-31
-2.50211e-31
-1.89683e-31
-1.26671e-31
-8.30768e-32
-8.20038e-32
-1.1628e-31
-1.62987e-31
-1.99776e-31
-1.99992e-31
-1.66784e-31
-1.15667e-31
-7.36187e-32
-7.04695e-32
-1.10162e-31
-1.80911e-31
-2.47377e-31
-2.7393e-31
-2.42627e-31
-1.62022e-31
-7.22369e-32
-1.37034e-32
-2.11574e-32
-8.71844e-32
-1.76651e-31
-2.46906e-31
-2.5327e-31
-2.06322e-31
-1.28277e-31
-6.49851e-32
-5.79314e-32
-9.32289e-32
-1.61405e-31
-2.10276e-31
-2.11676e-31
-1.74639e-31
-1.02841e-31
-5.25162e-32
-3.81667e-32
-6.62881e-32
-1.32657e-31
-1.87572e-31
-2.22921e-31
-2.14078e-31
-1.65798e-31
-1.09179e-31
-5.19131e-32
-2.74942e-32
-3.4575e-32
-6.46029e-32
-1.11559e-31
-1.47501e-31
-1.69995e-31
-1.71964e-31
-1.52463e-31
-1.24034e-31
-8.65427e-32
-5.07206e-32
-2.60572e-32
-1.65668e-32
-3.2713e-32
-6.92146e-32
-1.12222e-31
-1.45269e-31
-1.44637e-31
-1.06669e-31
-4.43995e-32
1.72055e-32
4.2879e-32
1.92808e-32
-4.33801e-32
-1.1323e-31
-1.44764e-31
-1.12735e-31
-2.37882e-32
8.5834e-32
1.59649e-31
1.57231e-31
7.85802e-32
-4.22264e-32
-1.38246e-31
-1.54035e-31
-7.74088e-32
6.89062e-32
2.13479e-31
2.93017e-31
2.79607e-31
1.78335e-31
5.46075e-32
-3.19729e-32
-3.94334e-32
4.47598e-32
1.72421e-31
2.97719e-31
3.72132e-31
3.71434e-31
3.20257e-31
2.47671e-31
1.98811e-31
2.02405e-31
2.55707e-31
3.41714e-31
4.2615e-31
4.80023e-31
4.93947e-31
4.82193e-31
4.68955e-31
4.84784e-31
5.40437e-31
6.17127e-31
6.92895e-31
7.31688e-31
7.26063e-31
7.00649e-31
6.83232e-31
7.17425e-31
8.11005e-31
9.38173e-31
1.06639e-30
1.14887e-30
1.17332e-30
1.16223e-30
1.14327e-30
1.15854e-30
1.22244e-30
1.31736e-30
1.43076e-30
1.53198e-30
1.61421e-30
1.69152e-30
1.76124e-30
1.84161e-30
1.92572e-30
2.00393e-30
2.08648e-30
2.16561e-30
2.25778e-30
2.3648e-30
2.47535e-30
2.58854e-30
2.69112e-30
2.79409e-30
2.91391e-30
3.06243e-30
3.24144e-30
3.42732e-30
3.58896e-30
3.70204e-30
3.77422e-30
3.8374e-30
3.94333e-30
4.12703e-30
4.3821e-30
4.67508e-30
4.93986e-30
5.13822e-30
5.26774e-30
5.3607e-30
5.48465e-30
5.6741e-30
5.94091e-30
6.25447e-30
6.55918e-30
6.82903e-30
7.05024e-30
7.25379e-30
7.47897e-30
7.7438e-30
8.05723e-30
8.38743e-30
8.70921e-30
9.01048e-30
9.2908e-30
9.58412e-30
9.90811e-30
1.02741e-29
1.0676e-29
1.1079e-29
1.14691e-29
1.1832e-29
1.21793e-29
1.25462e-29
1.29473e-29
1.3405e-29
1.39032e-29
1.44101e-29
1.49058e-29
1.53581e-29
1.57848e-29
1.62108e-29
1.66667e-29
1.71947e-29
1.77826e-29
1.84175e-29
1.90558e-29
1.96447e-29
2.01694e-29
2.06327e-29
2.10378e-29
2.16033e-29
2.22784e-29
2.37806e-29
2.63464e-29
3.0105e-29
3.7125e-29
3.99516e-29
4.28825e-29
2.59546e-29
-1.66522e-29
-6.78805e-29
-1.73325e-28
-1.63814e-28
-1.02868e-28
1.85307e-28
8.29696e-28
1.19522e-27
1.83787e-27
1.07643e-27
-7.41274e-28
-3.0164e-27
-7.52262e-27
-7.19285e-27
-5.91035e-27
1.76918e-27
1.68974e-26
2.26891e-26
3.30701e-26
1.66697e-26
-1.35895e-26
-4.09857e-26
-9.04738e-26
-7.13005e-26
-4.21728e-26
3.15923e-26
1.54647e-25
1.62758e-25
1.9202e-25
5.43337e-26
-1.45578e-25
-2.4154e-25
-4.15688e-25
-2.36501e-25
-3.16205e-26
2.19177e-25
5.89218e-25
4.55179e-25
3.83057e-25
-3.70609e-26
-5.43979e-25
-5.80026e-25
-7.54229e-25
-2.54555e-25
2.23651e-25
5.06871e-25
9.15316e-25
5.06882e-25
2.23667e-25
-2.54541e-25
-7.54224e-25
-5.80032e-25
-5.43991e-25
-3.7075e-26
3.83048e-25
4.55178e-25
5.89223e-25
2.19184e-25
-3.16147e-26
-2.36499e-25
-4.1569e-25
-2.41545e-25
-1.45582e-25
5.433e-26
1.92018e-25
1.62758e-25
1.54647e-25
3.15925e-26
-4.21732e-26
-7.13013e-26
-9.04746e-26
-4.09867e-26
-1.35904e-26
1.66687e-26
3.3069e-26
2.26882e-26
1.68964e-26
1.76837e-27
-5.91107e-27
-7.19348e-27
-7.5232e-27
-3.01701e-27
-7.41897e-28
1.07575e-27
1.83716e-27
1.1945e-27
8.28991e-28
1.84674e-28
-1.03421e-28
-1.64265e-28
-1.73709e-28
-6.8264e-29
-1.708e-29
2.54214e-29
4.22671e-29
3.93041e-29
3.6519e-29
2.96275e-29
2.60059e-29
2.35607e-29
2.21068e-29
2.13917e-29
2.07424e-29
2.02273e-29
1.96887e-29
1.91489e-29
1.85995e-29
1.80597e-29
1.7539e-29
1.70513e-29
1.6589e-29
1.61287e-29
1.56494e-29
1.51368e-29
1.45999e-29
1.40743e-29
1.35871e-29
1.31648e-29
1.28007e-29
1.24654e-29
1.21331e-29
1.17677e-29
1.13716e-29
1.09524e-29
1.05304e-29
1.01372e-29
9.77883e-30
9.46894e-30
9.19615e-30
8.94064e-30
8.68532e-30
8.40315e-30
8.08942e-30
7.75404e-30
7.41956e-30
7.12023e-30
6.8785e-30
6.6881e-30
6.53039e-30
6.36217e-30
6.14839e-30
5.89005e-30
5.59383e-30
5.31093e-30
5.07751e-30
4.90406e-30
4.79521e-30
4.69901e-30
4.58463e-30
4.42466e-30
4.20605e-30
3.96826e-30
3.73683e-30
3.55333e-30
3.43937e-30
3.37675e-30
3.34133e-30
3.28373e-30
3.16704e-30
2.98589e-30
2.76038e-30
2.54069e-30
2.38182e-30
2.30843e-30
2.31234e-30
2.34648e-30
2.34566e-30
2.27059e-30
2.11184e-30
1.90787e-30
1.71631e-30
1.58503e-30
1.53486e-30
1.54299e-30
1.57189e-30
1.57343e-30
1.52773e-30
1.4355e-30
1.31501e-30
1.20237e-30
1.109e-30
1.0543e-30
1.02802e-30
1.01524e-30
1.00757e-30
9.75821e-31
9.30433e-31
8.6478e-31
7.9549e-31
7.48281e-31
7.13434e-31
7.08599e-31
7.01841e-31
6.77025e-31
6.35525e-31
5.61545e-31
4.98525e-31
4.55492e-31
4.44314e-31
4.71839e-31
4.94056e-31
5.03759e-31
4.78766e-31
4.20213e-31
3.6166e-31
3.077e-31
2.79359e-31
2.68553e-31
2.55159e-31
2.43541e-31
2.26936e-31
2.26112e-31
2.54404e-31
2.951e-31
3.33623e-31
3.25506e-31
2.52146e-31
1.34644e-31
5.12177e-33
-6.25491e-32
-3.5064e-32
7.89044e-32
2.41318e-31
3.55701e-31
3.7168e-31
2.69385e-31
7.95778e-32
-9.64929e-32
-1.95947e-31
-1.64278e-31
-1.62591e-32
1.6209e-31
3.0329e-31
3.24414e-31
2.22154e-31
5.30082e-32
-1.19285e-31
-1.99042e-31
-1.68928e-31
-5.13317e-32
1.00827e-31
1.98476e-31
2.18205e-31
1.52691e-31
3.91626e-32
-5.77267e-32
-1.18123e-31
-1.16636e-31
-7.43529e-32
-2.07895e-32
3.48339e-32
6.55192e-32
8.13525e-32
7.8921e-32
5.67835e-32
2.76822e-32
-1.48628e-32
-5.19256e-32
-7.89503e-32
-8.91657e-32
-7.64636e-32
-5.11455e-32
-1.26833e-32
2.38906e-32
5.55345e-32
7.01569e-32
6.1553e-32
3.33156e-32
-1.76264e-32
-6.41658e-32
-1.01674e-31
-1.11848e-31
-8.84288e-32
-5.32196e-32
-2.27275e-33
3.27974e-32
5.00486e-32
5.1979e-32
2.60143e-32
-1.79202e-33
-3.96426e-32
-7.32531e-32
-8.79353e-32
-9.13222e-32
-6.56437e-32
-2.87765e-32
1.02766e-32
4.1734e-32
4.48584e-32
2.89754e-32
-6.31344e-33
-4.51164e-32
-7.1727e-32
-8.28812e-32
-7.1011e-32
-4.49825e-32
-1.25035e-32
1.53172e-32
2.86888e-32
2.29714e-32
2.81968e-33
-2.18834e-32
-4.08026e-32
-4.08733e-32
-3.21512e-32
-1.82007e-32
-1.36211e-32
-2.64334e-32
-3.73014e-32
-4.39759e-32
-2.36197e-32
1.59993e-32
4.95867e-32
6.39665e-32
2.96202e-32
-3.15171e-32
-9.35024e-32
-1.23354e-31
-9.09077e-32
-1.97679e-32
6.53041e-32
1.14009e-31
1.00089e-31
3.61443e-32
-5.30443e-32
-1.11371e-31
-1.16459e-31
-6.57976e-32
1.47289e-32
7.46779e-32
9.28404e-32
5.5733e-32
-1.0066e-32
-6.4633e-32
-8.49251e-32
-5.25538e-32
7.00422e-33
6.27582e-32
8.77002e-32
6.07623e-32
3.02638e-33
-6.08831e-32
-1.00029e-31
-8.86973e-32
-3.89869e-32
3.26881e-32
9.55502e-32
1.18261e-31
1.00804e-31
4.50442e-32
-2.63401e-32
-8.22176e-32
-1.13012e-31
-1.01665e-31
-5.54547e-32
7.43293e-33
7.69356e-32
1.2243e-31
1.34854e-31
1.0782e-31
4.1017e-32
-3.68891e-32
-1.07056e-31
-1.37842e-31
-1.12167e-31
-4.05709e-32
5.83135e-32
1.39401e-31
1.69659e-31
1.35658e-31
4.7271e-32
-5.24199e-32
-1.2075e-31
-1.26485e-31
-6.60938e-32
2.8272e-32
1.12917e-31
1.48943e-31
1.18595e-31
4.28926e-32
-4.16227e-32
-9.4181e-32
-8.52216e-32
-2.79049e-32
5.46024e-32
1.19971e-31
1.32176e-31
9.80509e-32
2.41366e-32
-4.42712e-32
-7.27159e-32
-6.00048e-32
2.35625e-33
6.74089e-32
1.10353e-31
1.18953e-31
7.65877e-32
2.54704e-32
-2.27958e-32
-4.51435e-32
-2.55276e-32
7.61419e-33
5.27284e-32
8.34951e-32
8.9087e-32
8.09673e-32
5.65731e-32
3.45696e-32
2.14877e-32
1.42429e-32
1.62651e-32
1.86876e-32
1.68579e-32
1.80032e-32
1.80872e-32
2.78634e-32
5.06572e-32
7.45418e-32
1.03668e-31
1.12197e-31
9.81913e-32
6.30291e-32
4.92128e-33
-3.87744e-32
-6.46307e-32
-4.98168e-32
3.63369e-33
6.77412e-32
1.31001e-31
1.54512e-31
1.39278e-31
8.74199e-32
2.37243e-32
-2.53404e-32
-4.59124e-32
-2.46805e-32
5.97339e-33
5.47084e-32
7.50616e-32
7.5665e-32
6.86082e-32
2.37549e-32
1.43158e-32
-1.82038e-32
-2.44567e-32
-4.5821e-33
)
;

boundaryField
{
    left
    {
        type            calculated;
        value           uniform 0;
    }
    right
    {
        type            calculated;
        value           uniform 0;
    }
    empty
    {
        type            empty;
        value           nonuniform List<scalar> 0();
    }
}


// ************************************************************************* //
