/*--------------------------------*- C++ -*----------------------------------*\
| =========                 |                                                 |
| \\      /  F ield         | OpenFOAM: The Open Source CFD Toolbox           |
|  \\    /   O peration     | Version:  2106                                  |
|   \\  /    A nd           | Website:  www.openfoam.com                      |
|    \\/     M anipulation  |                                                 |
\*---------------------------------------------------------------------------*/
FoamFile
{
    version     2.0;
    format      ascii;
    arch        "LSB;label=32;scalar=64";
    class       volScalarField;
    location    "0.145";
    object      p;
}
// * * * * * * * * * * * * * * * * * * * * * * * * * * * * * * * * * * * * * //

dimensions      [0 2 -2 0 0 0 0];

internalField   nonuniform List<scalar> 
11200
(
151.718314975
148.789713179
147.675862289
147.148531055
146.781201416
146.48642324
146.224779774
145.97624176
145.731723907
145.486656521
145.238342425
144.985026911
144.725477972
144.45876004
144.184106274
143.900843285
143.608345284
143.306006312
142.993227562
142.669420944
142.333962673
141.986203752
141.625485844
141.251141118
140.862484035
140.458813315
140.039412768
139.603551945
139.150486873
138.679460677
138.189704168
137.68043641
137.150864873
136.600185608
136.027583975
135.43223574
134.813307055
134.169954611
133.501325945
132.80655985
132.084786659
131.335128442
130.556699224
129.748605101
128.909944247
128.039806741
127.137274156
126.201418815
125.231302672
124.225975695
123.18447368
122.105815349
120.988998587
119.83299562
118.63674685
117.399153046
116.119065454
114.795273333
113.42648821
112.011324018
110.5482721
109.035669649
107.47165936
105.85414054
104.18070339
102.448542971
100.654348966
98.7941613957
96.8631761475
94.8554785152
92.7636796253
90.578420928
88.2875035721
85.8747439734
83.318062204
80.5858111591
77.6304140437
74.3793556966
70.6791966863
65.9166873048
149.925273045
148.567098925
147.776127416
147.276113093
146.885124929
146.561242562
146.276721672
146.012119718
145.756632164
145.504110569
145.250727586
144.993969612
144.732099601
144.463841099
144.188193692
143.904322583
143.611490399
143.309014338
142.996235982
142.672493469
142.337136648
141.989489847
141.628909648
141.254727828
140.866248401
140.46276438
140.043556743
139.607893221
139.155028555
138.684204907
138.194652153
137.685587888
137.156217403
136.605740299
136.033343949
135.438204317
134.819487306
134.176349565
133.507938638
132.813393381
132.091844257
131.342413541
130.564215553
129.75635681
128.917936051
128.048044108
127.145763518
126.210167839
125.240320559
124.235273568
123.194065039
122.115716653
120.999229971
119.84358178
118.647718146
117.410546877
116.130927985
114.807661603
113.439472772
112.024992334
110.562733089
109.05105982
107.488148983
105.871938017
104.200059611
102.469772083
100.677860264
98.820486966
96.8930128244
94.8897530556
92.8036385704
90.6257124501
88.3444277867
85.9446488577
83.4059812996
80.6999187071
77.7856631882
74.6053692985
71.0562195436
66.9431231438
148.930082783
148.275882365
147.72352662
147.28590889
146.914285192
146.592183665
146.303084092
146.03285055
145.772387991
145.515907511
145.259524096
145.000556029
144.737091268
144.467702853
144.191269729
143.906863294
143.613673937
143.310963089
142.998032473
142.674205234
142.338819312
141.991235245
141.630708787
141.25658654
140.868176383
140.464768733
140.045642259
139.610063597
139.157287162
138.686555303
138.197098668
137.688136907
137.158879273
136.60851845
136.036236878
135.441212036
134.822611253
134.179591641
133.511301586
132.816880815
132.095460633
131.346164231
130.568107024
129.760396839
128.922134003
128.05241128
127.15031356
126.21491726
125.245289371
124.240486089
123.199550856
122.121511794
121.005378355
119.85013699
118.65474561
117.418126519
116.139157455
114.816660349
113.449387196
112.036002075
110.575058011
109.064968227
107.503969189
105.890090385
104.22109518
102.494391308
100.706936865
98.8551331182
96.934665801
94.9402960957
92.8655739791
90.7024360437
88.4407867143
86.0677084175
83.5664773833
80.9152277012
78.0859728277
75.0470708851
71.7625074565
68.2091795149
148.380321608
148.016940266
147.61704221
147.248051708
146.910434888
146.602332265
146.316968692
146.046264462
145.783892171
145.525224815
145.26684434
145.006219192
144.741449546
144.471068143
144.193898928
143.908959398
143.61539326
143.312424339
142.999325529
142.675396921
142.339947592
141.992287443
141.63177539
141.257687963
140.86931472
140.465947978
140.046866144
139.61133462
139.158606715
138.687923806
138.198515457
137.689599624
137.160383447
136.610065018
136.037833906
135.442865332
134.824326473
134.181376269
133.513161763
132.818822973
132.097492076
131.348293272
130.570343387
129.762752103
128.924622095
128.055049045
127.153121444
126.217920121
125.24851743
124.243975987
123.203347041
122.12566827
121.009960813
119.85522543
118.660437602
117.424541354
116.146441439
114.824993243
113.458989812
112.047145691
110.588078641
109.080291818
107.522124351
105.911718162
104.246970926
102.52548357
100.744480848
98.9007107988
96.9903203267
95.0086993397
92.950290457
90.8083634327
88.5746854124
86.2392124117
83.7898517904
81.2124987472
78.4923963419
75.6198195247
72.5983462209
69.4651215376
148.046273709
147.814478225
147.51306579
147.202088627
146.897248903
146.605225209
146.326249272
146.057122807
145.794162184
145.534077244
145.274107559
145.012015708
144.746009181
144.474638922
144.196708257
143.911200243
143.617222269
143.313965152
143.000673596
142.676625019
142.341114564
141.993445933
141.632922725
141.258834578
140.870484236
140.467155404
140.048121273
139.612644823
139.159977998
138.689361578
138.200025164
137.691187354
137.162055894
136.61182745
136.039688168
135.444814498
134.826372582
134.183519421
133.515406264
132.821173806
132.099956088
131.350879765
130.573064211
129.765621906
128.927658858
128.05827466
127.156562445
126.221608591
125.252492073
124.248284081
123.208046265
122.130828857
121.015668327
119.861584195
118.667574865
117.432612139
116.155633767
114.835534851
113.471158398
112.061282873
110.604607315
109.099719688
107.545082565
105.939001681
104.279583624
102.564686719
100.791863547
98.9582921665
97.0606929657
95.0952315324
93.0574107759
90.9419654336
88.7427861622
86.4529527045
84.065041698
81.5720398972
78.9697451779
76.262593997
73.4719445983
70.6484966288
147.842881278
147.666979236
147.425784503
147.158458732
146.881271686
146.60463323
146.33294328
146.066441282
145.803675667
145.542666347
145.281378409
145.017944807
144.750740093
144.478373461
144.199652043
143.913538169
143.619109823
143.315527633
143.002008889
142.677807819
142.342201052
141.994476737
141.633925485
141.259837637
140.871502623
140.468199717
140.049199442
139.613762729
139.161140027
138.690570886
138.201283951
137.692497028
137.163417319
136.613241616
136.041156659
135.44633979
134.827959552
134.185175845
133.517139883
132.822995653
132.101879579
131.352918588
130.575233974
129.767940934
128.930148795
128.060961673
127.159478384
126.224792302
125.255991131
124.252155814
123.212360006
122.135668762
121.021136583
119.867804975
118.674699253
117.440824616
116.165161893
114.846660456
113.48422751
112.07671885
110.62291505
109.121522752
107.571158889
105.970307892
104.317302677
102.610293477
100.847209558
99.0257173647
97.1431770687
95.1966028894
93.1826386911
91.0975725854
88.9374382692
86.6982943973
84.3768559306
81.9717715538
79.486110671
76.9320339877
74.3365037896
71.7466443754
147.719764561
147.564156984
147.357855303
147.121293414
146.865818517
146.602539415
146.337926638
146.0744185
145.812285752
145.550700551
145.288328868
145.023694208
144.755366821
144.482038193
144.202536186
143.915813255
143.620924501
143.317004121
143.003244119
142.678876613
142.343159804
141.995367296
141.634780284
141.26068127
140.872351364
140.469064925
140.050089598
139.614684116
139.16209741
138.691568168
138.202324643
137.69358462
137.16455555
136.614434887
136.042410575
135.447660949
134.829355078
134.186653528
133.518708731
132.824664682
132.103656221
131.354814174
130.577264341
129.770126255
128.932514243
128.06353783
127.162302225
126.22790855
125.25945384
124.25603063
123.216726595
122.140624085
121.026798744
119.874317892
118.6822383
117.449603013
116.175436824
114.858742588
113.498498041
112.093638872
110.643065851
109.145619504
107.600070671
106.005106867
104.359316367
102.661170071
100.909003812
99.1010039215
97.23520094
95.3094806872
93.321629438
91.269441316
89.1509382895
86.9647895661
84.7110668297
82.3925327286
80.0167452225
77.5993190829
75.1671552775
72.7596483741
147.645684963
147.495674939
147.30891958
147.092814657
146.853109203
146.600288728
146.341652522
146.080915338
145.819549728
145.557629287
145.294413154
145.028777913
144.759483076
144.485307432
144.205107503
143.917833479
143.622523892
143.31829144
143.0043066
142.679782223
142.343960363
141.996101705
141.635477348
141.261361837
140.873031138
140.469754895
140.050797921
139.615416881
139.162859348
138.69236321
138.20315633
137.694456434
137.165471169
136.61539829
136.043425942
135.448732927
134.830489149
134.187855808
133.519986017
132.82602592
132.10511686
131.356392573
130.578979601
129.772000727
128.934574912
128.065817557
127.164841019
126.230755015
125.262666945
124.259682263
123.220904464
122.145434547
121.032370868
119.880808458
118.689837952
117.458544182
116.186004336
114.871285372
113.513437646
112.111495669
110.664466736
109.171330925
107.631033899
106.042478964
104.40452183
102.715967231
100.975569898
99.1820441021
97.3340888946
95.4304399146
93.4699660852
91.4518376192
89.3758116705
87.2427043465
85.0551348115
82.8186457209
80.5432883018
78.2456906936
75.9505651331
73.689961672
147.603408674
147.453961135
147.277545955
147.073808455
146.844276735
146.598569534
146.344210894
146.085573977
145.82486875
145.562776181
145.298980367
145.032623456
144.762613942
144.487803209
144.207074552
143.919379813
143.623746987
143.319273565
143.005114228
142.680467435
142.34456305
141.996651874
141.635997263
141.261868567
140.873535006
140.470265476
140.051321873
139.615959163
139.163423934
138.692953524
138.20377554
137.69510772
137.166157941
136.616124367
136.044195712
135.449551587
134.831362938
134.188792569
133.520995906
132.827121865
132.106310508
131.357698432
130.580417334
129.773594649
128.936354497
128.067818524
127.167106684
126.233337948
125.265630948
124.263104576
123.224878556
122.150073982
121.037813707
119.88722258
118.697427483
117.46755714
116.196741563
114.884111149
113.528797935
112.129932604
110.686644017
109.19805862
107.663300514
106.081492951
104.451762863
102.773250049
101.045124216
99.2666141325
97.4370575762
95.55598217
93.6232347124
91.6391829302
89.6050265354
87.523261751
85.3983425811
83.237576697
81.0522332707
78.8587517844
76.679213084
74.5398408363
147.584132306
147.43425461
147.262292119
147.064357459
146.839797188
146.597679409
146.345545739
146.088038412
145.827712967
145.565553518
145.301464792
145.034731059
144.764342748
144.489192412
144.208179426
143.920257628
143.624449999
143.319846189
143.005592533
142.680879796
142.344931284
141.996992464
141.636322471
141.262187436
140.873854856
140.470591273
140.051657548
139.616307906
139.163788515
138.693336581
138.204179727
137.695535902
137.166613374
136.616610865
136.044717832
135.450114828
134.831973957
134.189459382
133.52172784
132.827928934
132.107207464
131.358702641
130.581549387
129.77487944
128.937822298
128.069506153
127.169058854
126.235608908
125.268286508
124.266224596
123.228559991
122.154434519
121.042996208
119.893400496
118.70481149
117.476403266
116.207361261
114.896883352
113.544182228
112.148490005
110.709053767
109.225146833
107.696072821
106.121173983
104.499844481
102.83155033
101.115859194
99.3524842223
97.5413515131
95.6826977388
93.7772179359
91.8262812836
89.8322373227
87.7988435312
85.7318152489
83.6395113808
81.533676593
79.430095404
77.3484965665
75.310851495
147.584134955
147.434270738
147.262319198
147.064393773
146.839841967
146.597731812
146.345604842
146.088103383
145.827783105
145.565628242
145.301543637
145.034813661
144.764428839
144.489281802
144.208271995
143.920353335
143.624548843
143.319948227
143.005697878
142.680988618
142.345043821
141.997109035
141.636443486
141.262313429
140.873986462
140.470729257
140.051802812
139.616461561
139.163951923
138.693511296
138.204367742
137.695739686
137.166835932
136.616855851
136.044989666
135.450418836
134.832316537
134.189848238
133.522172398
132.828441194
132.107801374
131.359395142
130.582361198
129.775835823
128.938953982
128.07085047
127.170661122
126.237524111
125.270581335
124.268979937
123.231873967
122.158426191
121.047810081
119.899211986
118.711833533
117.484894277
116.217634768
114.909319857
113.559242587
112.16673099
110.731157125
109.251936287
107.728547043
106.160543809
104.547575869
102.88941451
101.185992447
99.4374609299
97.6442670254
95.8072657895
93.927929469
92.0084662976
90.0520379297
88.0632807272
86.0487169249
84.0172607227
81.9807185365
79.954137606
77.9554585874
76.0038179954
147.603416675
147.454009894
147.277627795
147.07391814
146.844411925
146.598727513
146.344388845
146.085769425
145.825079603
145.563000708
145.299217181
145.032871478
144.76287237
144.488071484
144.20735233
143.919666944
143.624043491
143.319579622
143.005430178
142.680793787
142.344900516
141.997001391
141.636360064
141.262246466
140.873929393
140.470678779
140.051756797
139.616418953
139.163912559
138.693475813
138.204337437
137.695716507
137.166822514
136.616855567
136.045006721
135.450458399
134.832384918
134.189953121
133.522323106
132.82864905
132.108080134
131.359761596
130.582835829
129.776443575
128.939725191
128.071821984
127.171877669
126.239039947
125.272462257
124.271305732
123.234741399
122.161952624
121.052137872
119.904513807
118.718318789
117.492816885
116.227302523
114.921105912
113.573598904
112.184204949
110.752408188
109.277767018
107.759921836
106.198623787
104.593759609
102.945391578
101.253816323
99.5195866804
97.7436029886
95.9272428327
94.0724426105
92.1819824904
90.2597961603
88.3111380991
86.34300993
84.3645778185
82.3875337589
80.4263100791
78.4976607973
76.6190718436
147.645698496
147.495757447
147.309057827
147.092999552
146.853336637
146.600554005
146.341950856
146.081242573
145.819902376
145.558004476
145.294808588
145.029191815
144.759914128
144.485754721
144.205570473
143.918311893
143.6230178
143.318801156
143.004832694
142.680325551
142.344522123
141.99668345
141.636080925
141.261989692
140.873686731
140.47044169
140.051520297
139.616180182
139.163670083
138.693229341
138.204087604
137.695464772
137.166571116
136.616607538
136.044765941
135.450229709
134.83217428
134.189767832
133.522172067
132.828543107
132.108032521
131.359788451
130.582956834
129.776682714
128.940111644
128.072391211
127.172672713
126.24011302
125.273876669
124.27313825
123.237085098
122.164920359
121.055866471
119.909169141
118.724101887
117.49997129
116.236123139
114.931949761
113.586898439
112.200480454
110.772287609
109.302005823
107.789437758
106.234525581
104.637375942
102.998296538
101.317835286
99.5968846355
97.8367541166
96.0392540048
94.2068363464
92.3427670698
90.4513530453
88.5382009184
86.6105357875
84.6775382798
82.7506634104
80.8438805599
78.9733557531
77.1560489997
147.719783991
147.564275378
147.358053025
147.121556913
146.866141593
146.602915177
146.338348213
146.074880002
145.812782295
145.551228143
145.288884333
145.024275101
144.755971335
144.48266508
144.203184693
143.916483062
143.621615678
143.317717091
143.003979655
142.679635864
142.343944384
141.996179376
141.635622592
141.261557245
140.873265132
140.470021482
140.051095004
139.615745686
139.163224049
138.692770797
138.203616664
137.69498246
137.166079281
136.616108826
136.044263828
135.449728579
134.831679568
134.189286239
133.521711829
132.828114332
132.107647578
131.359462452
130.582708213
129.776533919
128.940089983
128.072529867
127.173011966
126.240701734
125.274774105
124.274416256
123.238830776
122.167239291
121.058886629
119.913045587
118.729022415
117.506163186
116.243861248
114.941566182
113.598794469
112.215142184
110.790299419
109.32406851
107.81638772
106.267354542
104.677268098
103.046669054
101.376387652
99.6676042316
97.9219302945
96.1415100793
94.3291424894
92.4884282773
90.623947832
88.7414765384
86.8482461242
84.9532444432
83.067559153
81.2047755033
79.3809312398
77.6134773288
147.842907262
147.667137211
147.426046885
147.1588066
146.881696265
146.60512512
146.333493376
146.067041938
145.804320617
145.543350522
145.282097808
145.018696366
144.751521561
144.479183291
144.200489302
143.91440245
143.620001169
143.316446476
143.00295601
142.678784343
142.343208404
141.995516956
141.635003169
141.26095867
140.87267163
140.469422387
140.050483056
139.615116167
139.162574154
138.692099153
138.202923014
137.694267467
137.165344424
136.615356366
136.043496826
135.448950948
134.830896145
134.188502952
133.520935951
132.827354814
132.106915452
131.358771328
130.582074791
129.775978609
128.939637627
128.072210643
127.17286248
126.240766371
125.275106674
124.275081957
123.239908617
122.168824991
121.061096121
119.916019216
118.732929993
117.511210114
116.250295879
114.949688341
113.608965322
112.227795943
110.805958128
109.343359177
107.84006076
106.296308679
104.712568129
103.089567197
101.428349638
99.7303380407
97.997406595
96.2319680579
94.437076861
92.6165510456
90.775112821
88.9185516345
87.053927556
85.1898331435
83.3367832975
81.5078641581
79.7191227432
77.9892630747
148.046306931
147.814680636
147.513399306
147.20252785
146.897781799
146.605839451
146.326933373
146.057867361
145.794959611
145.534921493
145.274993905
145.012940575
144.746969986
144.475633951
144.197736565
143.912261552
143.618316856
143.315093685
143.001836952
142.677824327
142.34235148
141.994721725
141.634239633
141.26020595
140.871914047
140.468649341
140.049687384
139.614293177
139.161720959
138.691214199
138.202005769
137.693318232
137.164364246
136.614347018
136.042460838
135.447891697
134.829817984
134.187411315
133.519837491
132.82625756
132.105828994
131.357707341
130.581047539
129.775005556
128.938740147
128.071414828
127.17220012
126.240276107
125.274835409
124.275086599
123.240258251
122.1696034
121.062404847
119.917981259
118.735694236
117.51495637
116.255240262
114.956091303
113.617140609
112.238120817
110.818885032
109.359429333
107.85991964
106.320723312
104.742446773
103.125979246
101.472543661
99.7837566689
98.0616969725
96.3089821625
94.5288532825
92.7252676098
90.9029974613
89.0677372141
87.2262345443
85.3864779724
83.5580812542
81.753191694
79.9873244675
78.2803376122
148.380362088
148.01719078
147.617449365
147.248582661
146.911073655
146.603063109
146.317777643
146.047140403
145.784826306
145.526210218
145.267875677
145.007292496
144.742562041
144.472218139
144.195085771
143.91018348
143.616656036
143.313728279
143.00067364
142.676793145
142.341401155
141.99381411
141.633348009
141.259310115
140.871000209
140.467707999
140.048712129
139.613279889
139.160667075
138.690118221
138.200867015
137.692136689
137.163140418
136.613081835
136.041155665
135.446548487
134.828439545
134.186001467
133.518401186
132.824801314
132.104361201
131.356238389
130.579589866
129.773574224
128.937353389
128.070094694
127.17097329
126.23917493
125.273899206
124.274362852
123.239804327
122.169488633
121.062713079
119.9188138
118.737173399
117.517230027
116.258488474
114.960530986
113.623032408
112.245777512
110.828681227
109.371812421
107.875421971
106.33997557
104.766192122
103.155088136
101.508028352
99.8267827482
98.1135888862
96.3712187492
94.6030474978
92.8131208107
91.006212907
89.187872168
87.3644579933
85.5431791827
83.7323240699
81.9422528849
80.1861590041
78.4826485805
148.930135327
148.276195132
147.724017425
147.286536893
146.915030727
146.593027711
146.304010458
146.03384665
145.773443964
145.517015612
145.260678311
145.001751767
144.7383251
144.468972324
144.192573247
143.908200182
143.6150448
143.312370686
142.999481985
142.675703307
142.340366575
141.992801555
141.632329303
141.258269614
140.869926995
140.466594387
140.047552974
139.612071895
139.159408434
138.688808125
138.199505384
137.690724061
137.161677891
136.611571043
136.039598731
135.444947749
134.826796755
134.184319123
133.516682863
132.823051246
132.102584607
131.354441838
130.577782141
129.771766315
128.935558848
128.068330152
127.169259059
126.237535678
125.272364647
124.272969379
123.238596262
122.168519914
121.0620491
119.918533717
118.737372816
117.518023828
116.26001388
114.962953583
113.62655137
112.25063174
110.835156553
109.380249986
107.88622773
106.353630756
104.783264227
103.176241681
101.534034638
99.8585268212
98.1520715809
96.4175545666
94.6584488634
92.8788637128
91.0835705114
89.2779958791
87.4681531386
85.6604227462
83.8614499881
82.0787638417
80.319440678
78.5920531613
149.925373023
148.567557231
147.77681083
147.276968778
146.886129773
146.562375757
146.277966182
146.013462431
145.75806283
145.505621093
145.252311569
144.995621928
144.73381598
144.465617712
144.19002675
143.906207956
143.613423106
143.310987737
142.998244672
142.674545323
142.339230174
141.991649874
141.631152442
141.257054489
140.868664291
140.465278165
140.046178959
139.610634867
139.157904733
138.687235667
138.197862723
137.689010095
137.159891802
136.609712299
136.03766716
135.442943966
134.824723687
134.182179614
133.514479557
132.82078756
132.100265021
131.352071758
130.575367878
129.769315535
128.93308092
128.065836508
127.166763642
126.235055507
125.269920583
124.270586639
123.23630528
122.166357452
121.06005962
119.916770971
118.735901869
117.516923837
116.25938079
114.962901887
113.627218363
112.252181963
110.837786715
109.384194431
107.891764357
106.361087373
104.793025269
103.188755125
101.54981842
99.8781726208
98.1762458905
96.4470118351
94.6940181272
92.9214328352
91.134060443
89.3373182327
87.5371026705
85.7392782472
83.9493713571
82.1721347445
80.4023808727
78.6103438576
151.718481596
148.790383992
147.676856381
147.149786213
146.78268741
146.488115411
146.226659501
145.978295445
145.733941605
145.48903114
145.240869218
144.987703164
144.728302877
144.461734725
144.187233911
143.904129154
143.611796692
143.309631948
142.997032418
142.673390682
142.338101527
141.990525082
141.629992405
141.255838281
140.867380524
140.463919871
140.044742411
139.609122968
139.156319338
138.685577036
138.196131118
137.68720593
137.158015556
136.607764484
136.035648278
135.440854309
134.822562642
134.179947069
133.512176197
132.818414532
132.097823825
131.349564512
130.572797419
129.766685507
128.930395896
128.063102161
127.16398695
126.232245014
125.267086713
124.267742117
123.233465679
122.163541713
121.057290689
119.914076563
118.733315309
117.514484888
116.257137048
114.960911033
113.625549713
112.250918518
110.837027644
109.38405806
107.892391596
106.362645614
104.795712646
103.192804938
101.555504191
99.8858188778
98.1862438329
96.4597859923
94.7100507673
92.9412754496
91.1583496067
89.3667935031
87.572659473
85.7824615286
84.0026467
82.2380761746
80.4685073157
78.5691346235
58.5178093681
54.9665051864
52.5761053938
50.6206700399
48.9514715302
47.4980406191
46.216037476
45.0753808543
44.0540549545
43.1350474895
42.3047907891
41.5522288389
40.8682083574
40.2450535376
39.6762524132
39.1562188522
38.680110572
38.2436902397
37.8432202574
37.4753829457
37.1372193604
36.8260811256
36.5395917232
36.2756142996
36.0322242109
35.8076850733
35.6004278878
35.4090325317
35.2322113511
35.0687944035
34.9177165758
34.778006192
34.6487748906
34.5292089973
34.4185622727
34.3161493682
34.2213401582
34.1335555778
34.0522697139
33.9770353176
33.907502007
33.8432169949
33.7837129712
33.7286166828
33.6775991147
33.6303542938
33.5865965346
33.5460596609
33.5084965601
33.4736778106
33.4413905461
33.4114373251
33.3836350387
33.3578137561
33.3338155977
33.3114940593
33.290713306
33.2713477481
33.2532811827
33.2364059983
33.2206222219
33.2058376057
33.1919667148
33.1789311705
33.1666582592
33.1550814194
33.1441388793
33.1337733952
33.1239326236
33.1145704957
33.1056482099
33.0971237048
33.0889577219
33.0811297117
33.0735549669
33.0662830465
33.0592346164
33.0524048173
33.045780065
33.0393450138
33.0330667317
33.0269266063
33.0209095568
33.0150016715
33.0091904517
33.0034649858
32.9978150735
32.9922316242
32.9867064627
32.9812314716
32.9757993658
32.9704039006
32.9650397028
32.9597019004
32.954385614
32.9490863465
32.9438005065
32.9385250012
32.9332569194
32.9279939651
32.9227344369
32.9174770012
32.9122206632
32.9069649459
32.9017097066
32.8964554281
32.8912028623
32.8859534565
32.8807094235
32.875473774
32.8702501661
32.8650439916
32.8598620476
32.8547124174
32.8496049161
32.8445511081
32.839565348
32.8346641185
32.8298669339
32.8251978858
32.8206848399
32.8163607239
32.8122672185
32.8084525895
32.8049762837
32.801908371
32.7993330094
32.7973519997
32.7960883727
32.795690311
32.7963369313
32.7982446058
32.8016762248
32.8069489148
32.8144435395
32.8246219227
32.8380308286
32.8553184393
32.8772438329
32.9046561551
32.9384144181
32.9791438141
33.0266962279
33.0790748594
33.130259963
33.1685202505
33.1717744868
33.1062617604
32.9209069159
32.5410815324
31.8616646487
30.7546009516
29.1003026422
26.8254376295
23.9199504633
20.4461100897
16.5151594886
12.0729257009
6.84219280138
1.64671374468
61.6998859939
57.6470550987
54.9362772204
52.7860993253
50.9871333087
49.440684992
48.0881798149
46.8920086543
45.8256613256
44.8692499545
44.0072870272
43.2273900403
42.5194639478
41.8751495825
41.2874291414
40.7503356397
40.2587351927
39.8081637402
39.3947050316
39.0148986342
38.6656702961
38.3442773008
38.0482649722
37.7754312604
37.5237962296
37.2915761707
37.0771612024
36.8790955352
36.6960600831
36.5268572404
36.3703976214
36.2256883863
36.0918230302
35.9679722879
35.8533764698
35.7473385432
35.6492174951
35.5584232447
35.474407372
35.3966473948
35.3246281031
35.2578984092
35.1961500535
35.1390007768
35.0860923525
35.0370989814
34.9917248262
34.9496962053
34.910757948
34.8746740084
34.8412241785
34.8102034912
34.7814229635
34.7547063539
34.7298889589
34.7068188545
34.6853554453
34.6653677903
34.6467345914
34.6293438985
34.6130922616
34.5978833785
34.5836283326
34.5702458971
34.5576596186
34.5458001373
34.534602982
34.5240103551
34.5139674938
34.504421264
34.4953229079
34.4866299366
34.4783057562
34.4703263032
34.4626220026
34.4552167057
34.4480516644
34.4411068005
34.4343569064
34.4277820527
34.421366074
34.4150938354
34.4089504913
34.4029217888
34.3969943152
34.3911575458
34.3854002735
34.379713395
34.3740882515
34.3685167397
34.3629915004
34.3575061774
34.3520544433
34.3466317537
34.3412340074
34.3358549283
34.3304913253
34.3251410439
34.3197992252
34.3144639347
34.30913407
34.3038064103
34.298481471
34.2931565479
34.287832209
34.2825079397
34.2771854913
34.271863474
34.2665462462
34.2612340328
34.2559313901
34.2506432867
34.2453748667
34.2401358717
34.2349341148
34.2297821619
34.2246928527
34.2196839711
34.21477619
34.2099912754
34.2053598686
34.2009191401
34.1967056151
34.1927783354
34.1891928022
34.1860317094
34.1833746283
34.1813445843
34.1800619571
34.1796967149
34.1804397637
34.1825306162
34.1862561832
34.191967126
34.2000892976
34.2111297901
34.2257067885
34.2445451372
34.2685071133
34.2985541221
34.3356787548
34.3806195545
34.4332758963
34.4915537483
34.5489407702
34.5929752432
34.599340899
34.5312063409
34.3320109092
33.9194183671
33.1802812335
31.982425641
30.2096545963
27.7993434544
24.7533845278
21.1377466551
17.062233129
12.4907280831
7.15914773661
1.78996901797
63.9080119194
59.9744153799
57.1085625855
54.8269415949
52.9280504249
51.3051138571
49.8927333594
48.6485233628
47.5427363202
46.5532704232
45.6630955466
44.8587337158
44.1292985956
43.4658502737
42.860938386
42.3082690053
41.8024577154
41.3388459434
40.9133645258
40.522431367
40.1628743107
39.8318708976
39.5269007999
39.245707105
38.9862635727
38.7467468605
38.5255126658
38.3210748418
38.1320870716
37.9573269422
37.7956819546
37.6461372175
37.5077647765
37.3797142091
37.2612045275
37.1515173869
37.0499904881
36.9560132815
36.8690236119
36.7885078587
36.7139923426
36.6449963931
36.5810833852
36.5218988792
36.4671039444
36.4163758568
36.369407899
36.3259146889
36.2856306742
36.2483102853
36.213725104
36.181662401
36.1519255712
36.1243318814
36.0987109414
36.0749046781
36.0527672305
36.0321628902
36.0129657953
35.9950596182
35.9783368915
35.9626978347
35.9480496809
35.934307567
35.921392993
35.9092340904
35.8977630983
35.886916882
35.876635616
35.8668722092
35.8575829927
35.8487228672
35.8402501432
35.8321317115
35.8243176689
35.8167996513
35.8095379813
35.8025082703
35.7956869342
35.7890534572
35.7825871152
35.7762698454
35.7700854999
35.7640191795
35.7580570284
35.7521876965
35.7463995897
35.740682973
35.7350288551
35.7294287919
35.7238750454
35.7183614021
35.7128810084
35.7074281572
35.701999127
35.6965880802
35.6911907148
35.6858049685
35.6804263186
35.675051907
35.669680784
35.6643096744
35.6589386063
35.6535649579
35.6481889609
35.6428097598
35.6374293048
35.6320458187
35.6266630361
35.6212817328
35.6159054734
35.6105391234
35.6051876152
35.5998601794
35.5945645386
35.5893130876
35.5841187875
35.5789985564
35.5739735203
35.5690667534
35.5643087684
35.5597379648
35.5553939142
35.551336276
35.5476224385
35.5443412564
35.541575658
35.5394546457
35.5381091687
35.5377196124
35.538491438
35.5406810728
35.5445994679
35.5506251094
35.5592179103
35.5709323359
35.58644275
35.6065422942
35.6321804134
35.6644170118
35.7043431279
35.7527794253
35.8096327568
35.872632366
35.9346814732
35.9828720765
35.9900798237
35.9168765874
35.7015547584
35.2548287403
34.4566573295
33.1717341817
31.2874417737
28.7507099547
25.573396638
21.8233821692
17.6077975842
12.9078780576
7.47381623715
1.93041362744
65.7127017067
61.988264956
59.0857222089
56.7329640822
54.7660095704
53.0852080188
51.6250322951
50.3412402645
49.2022727291
48.1845793871
47.2700291436
46.4443209104
45.6959546976
45.0155312018
44.3952536178
43.8285643105