/*--------------------------------*- C++ -*----------------------------------*\
| =========                 |                                                 |
| \\      /  F ield         | OpenFOAM: The Open Source CFD Toolbox           |
|  \\    /   O peration     | Version:  2106                                  |
|   \\  /    A nd           | Website:  www.openfoam.com                      |
|    \\/     M anipulation  |                                                 |
\*---------------------------------------------------------------------------*/
FoamFile
{
    version     2.0;
    format      ascii;
    arch        "LSB;label=32;scalar=64";
    class       volVectorField;
    location    "0.145";
    object      U;
}
// * * * * * * * * * * * * * * * * * * * * * * * * * * * * * * * * * * * * * //

dimensions      [0 1 -1 0 0 0 0];

internalField   nonuniform List<vector> 
11200
(
(0.662462404337 0.150569443269 0)
(0.558948674452 0.103243389297 0)
(0.383850738502 0.0513512253069 0)
(0.283747597133 0.0248708563135 0)
(0.232075273366 0.0124170461493 0)
(0.201908592043 0.00662281765217 0)
(0.183197940873 0.00380291517413 0)
(0.17127649926 0.0023158707838 0)
(0.163510319506 0.00146450726208 0)
(0.158388784978 0.000944893122512 0)
(0.155006648002 0.000615177573549 0)
(0.152786694199 0.000402234393764 0)
(0.151346544897 0.000264232607908 0)
(0.150428308676 0.000175250194969 0)
(0.149856705764 0.000118360184524 0)
(0.149512507104 8.21586892458e-05 0)
(0.149314951399 5.88633602511e-05 0)
(0.149209597015 4.33112757061e-05 0)
(0.149159747572 3.29281611703e-05 0)
(0.149142522169 2.81798163153e-05 0)
(0.14914469973 2.76767691911e-05 0)
(0.149157000782 2.98880589956e-05 0)
(0.149172651088 3.3049777498e-05 0)
(0.149188233596 3.59653146152e-05 0)
(0.149202483329 3.86012188433e-05 0)
(0.149214799602 4.10410927238e-05 0)
(0.149225014097 4.33192974737e-05 0)
(0.149233232978 4.54666960332e-05 0)
(0.1492396921 4.752195932e-05 0)
(0.149244672178 4.95306306402e-05 0)
(0.149248456034 5.15514307179e-05 0)
(0.149251311268 5.36724910465e-05 0)
(0.149253433081 5.59903399751e-05 0)
(0.149254987322 5.83711333088e-05 0)
(0.149256110553 6.07369245722e-05 0)
(0.149256888886 6.30654541729e-05 0)
(0.149257410496 6.53643953179e-05 0)
(0.1492577586 6.76437944339e-05 0)
(0.149257991126 6.99163350002e-05 0)
(0.149258139122 7.21889621607e-05 0)
(0.149258224636 7.44631182041e-05 0)
(0.149258266127 7.67397979706e-05 0)
(0.149258276823 7.90189030488e-05 0)
(0.149258266101 8.12994148222e-05 0)
(0.149258240235 8.35797596742e-05 0)
(0.149258203152 8.5857633143e-05 0)
(0.149258157792 8.81301671394e-05 0)
(0.149258107151 9.03942105054e-05 0)
(0.149258054634 9.26466941523e-05 0)
(0.149258005175 9.48843783617e-05 0)
(0.14925796633 9.71042921941e-05 0)
(0.149257948552 9.93036008166e-05 0)
(0.149257965837 0.000101479419084 0)
(0.149258036952 0.000103628668082 0)
(0.149258187425 0.000105747644136 0)
(0.149258452763 0.000107831272165 0)
(0.149258882907 0.000109872695634 0)
(0.149259549401 0.000111862678083 0)
(0.14926055812 0.000113787622275 0)
(0.149262065263 0.00011562345235 0)
(0.149264310113 0.00011731766315 0)
(0.149267696505 0.000118783159783 0)
(0.149272708501 0.000120048379963 0)
(0.149279989932 0.000121298063596 0)
(0.149290568096 0.000122983975181 0)
(0.149305966399 0.000125342548094 0)
(0.14932857419 0.000128128643549 0)
(0.149362108152 0.000131104093716 0)
(0.149412194628 0.000134046753988 0)
(0.149487111193 0.000136844310822 0)
(0.149598862449 0.000140804525837 0)
(0.149770480521 0.000151825254377 0)
(0.150039934205 0.000172701911104 0)
(0.150470611805 0.000203158724992 0)
(0.151198824932 0.000233390158438 0)
(0.152503437373 0.000192651079672 0)
(0.155042931109 -0.000218197980315 0)
(0.162418404561 -0.0021256508424 0)
(0.18785835193 -0.0108753783933 0)
(0.20500377624 -0.0501653005852 0)
(0.965408254651 0.289214707806 0)
(0.96196285891 0.252656042061 0)
(0.823574388189 0.159021444423 0)
(0.698139361547 0.0959957343344 0)
(0.610225452913 0.0582481172879 0)
(0.548971477367 0.0362148562281 0)
(0.506588871237 0.023161288021 0)
(0.477567247971 0.0151375180371 0)
(0.457745467267 0.0100177576679 0)
(0.444228432684 0.00665814338805 0)
(0.435053267034 0.00441555795663 0)
(0.428873083353 0.0029068666175 0)
(0.424754164497 0.00189105771709 0)
(0.422046613595 0.00121004246713 0)
(0.420297778553 0.000757157543218 0)
(0.419193176322 0.000459246014622 0)
(0.418515584773 0.000265839820508 0)
(0.418116460382 0.000142378414544 0)
(0.417895890884 6.60818929013e-05 0)
(0.417786887571 2.30605596608e-05 0)
(0.417745544667 1.36977059198e-06 0)
(0.417742349979 -1.02183214692e-05 0)
(0.417757037297 -1.37797423733e-05 0)
(0.417779106299 -1.33439710555e-05 0)
(0.417803528652 -1.09234188688e-05 0)
(0.4178270414 -7.59155275438e-06 0)
(0.417847948816 -3.98515902701e-06 0)
(0.417865649413 -4.73477534894e-07 0)
(0.417880143202 2.74348445847e-06 0)
(0.417891739684 5.56445161303e-06 0)
(0.417900904582 7.93049096954e-06 0)
(0.417908144841 9.76372035069e-06 0)
(0.417913664407 1.09600446739e-05 0)
(0.417917675638 1.18232636822e-05 0)
(0.41792055766 1.26314541283e-05 0)
(0.41792258611 1.3388006532e-05 0)
(0.417923988244 1.40701550023e-05 0)
(0.417924956603 1.46903105995e-05 0)
(0.417925627032 1.52801510058e-05 0)
(0.417926074008 1.58539086558e-05 0)
(0.417926351155 1.6412490541e-05 0)
(0.417926503196 1.69606983459e-05 0)
(0.417926562385 1.75022270014e-05 0)
(0.41792655248 1.8039958176e-05 0)
(0.417926490522 1.8577028454e-05 0)
(0.41792638857 1.91157821434e-05 0)
(0.417926256666 1.96581408001e-05 0)
(0.417926104981 2.02061685912e-05 0)
(0.417925944234 2.07623169906e-05 0)
(0.417925788022 2.13271175065e-05 0)
(0.417925655291 2.19011104197e-05 0)
(0.41792557122 2.24850320592e-05 0)
(0.417925569464 2.30793823981e-05 0)
(0.417925695693 2.36841506349e-05 0)
(0.417926012856 2.42984877986e-05 0)
(0.417926610012 2.4920642622e-05 0)
(0.417927614861 2.55483457254e-05 0)
(0.417929211984 2.61743509331e-05 0)
(0.417931671209 2.6778833986e-05 0)
(0.417935379581 2.73305399158e-05 0)
(0.417940921856 2.77845435468e-05 0)
(0.417949377591 2.80731234867e-05 0)
(0.417962257838 2.83391469052e-05 0)
(0.417981697121 2.79408411174e-05 0)
(0.418010506796 2.54445453241e-05 0)
(0.418052304381 1.96690314887e-05 0)
(0.418113247214 9.80924554679e-06 0)
(0.418203515373 -5.66743299716e-06 0)
(0.41833882798 -2.93051036276e-05 0)
(0.418544281791 -6.48192201029e-05 0)
(0.418862121884 -0.000116440310328 0)
(0.419362472187 -0.000189196065143 0)
(0.420159730963 -0.000310125190913 0)
(0.421459299079 -0.000537160097376 0)
(0.423656066804 -0.00100806660864 0)
(0.427475434545 -0.00210744591634 0)
(0.434353898146 -0.00489619068018 0)
(0.448498833261 -0.0123591911646 0)
(0.475146538227 -0.0345470417139 0)
(0.479229293722 -0.0997772352851 0)
(1.02222096558 0.23841618778 0)
(1.0821375293 0.295926655348 0)
(1.0344772238 0.239503070615 0)
(0.95461540382 0.17429016951 0)
(0.879992047505 0.121345473761 0)
(0.818614425004 0.0830993894078 0)
(0.771410838098 0.0567316721598 0)
(0.736634376878 0.0387409731943 0)
(0.711624417948 0.0264327911025 0)
(0.693916605723 0.0179731078728 0)
(0.681541395981 0.0121424495892 0)
(0.673000104117 0.00812490737104 0)
(0.667180640844 0.00536631644541 0)
(0.663271675053 0.00348443471882 0)
(0.660688512119 0.00221254401215 0)
(0.659014202392 0.00136335452409 0)
(0.657954544973 0.000805204215634 0)
(0.657304287368 0.00044586236867 0)
(0.656921919197 0.000220997586838 0)
(0.656710421057 8.54918776364e-05 0)
(0.656603638471 8.24756212504e-06 0)
(0.656562195787 -3.38720778594e-05 0)
(0.656558426486 -5.70526621587e-05 0)
(0.656572047479 -6.7102319218e-05 0)
(0.656593743209 -6.87387722417e-05 0)
(0.656617748509 -6.58472265941e-05 0)
(0.65664075286 -6.08654663375e-05 0)
(0.656661146618 -5.5202750633e-05 0)
(0.656678342107 -4.9642213314e-05 0)
(0.656692315541 -4.45888806706e-05 0)
(0.656703310772 -4.02332311961e-05 0)
(0.656711689697 -3.66864746565e-05 0)
(0.656718127548 -3.40688318732e-05 0)
(0.656723318021 -3.22080869651e-05 0)
(0.656727355093 -3.11074987769e-05 0)
(0.656730253346 -3.0560013215e-05 0)
(0.656732268342 -3.04398814915e-05 0)
(0.656733682644 -3.07096955813e-05 0)
(0.656734680207 -3.12078122379e-05 0)
(0.656735353449 -3.18426072024e-05 0)
(0.656735777743 -3.25838807019e-05 0)
(0.656736019621 -3.33982472247e-05 0)
(0.656736125749 -3.42603798572e-05 0)
(0.656736131743 -3.51515684501e-05 0)
(0.656736063887 -3.6055853759e-05 0)
(0.656735941199 -3.69620710306e-05 0)
(0.656735779962 -3.78627387136e-05 0)
(0.656735596262 -3.87523627713e-05 0)
(0.656735404955 -3.96246056683e-05 0)
(0.656735224169 -4.04749960377e-05 0)
(0.656735080485 -4.12979618665e-05 0)
(0.656735009476 -4.20886882494e-05 0)
(0.656735058879 -4.2844528243e-05 0)
(0.656735294288 -4.35665039041e-05 0)
(0.656735807822 -4.42636879957e-05 0)
(0.656736731662 -4.49619013905e-05 0)
(0.656738252905 -4.57132247645e-05 0)
(0.65674063582 -4.66073007854e-05 0)
(0.656744273996 -4.77821439527e-05 0)
(0.656749761367 -4.94534757676e-05 0)
(0.656757997354 -5.20916990029e-05 0)
(0.656770604426 -5.6755897791e-05 0)
(0.65678903186 -6.42422472164e-05 0)
(0.656814712649 -7.54928505431e-05 0)
(0.656851321017 -9.21390207399e-05 0)
(0.656905595248 -0.000116643003517 0)
(0.656987042815 -0.000152223578425 0)
(0.657109542448 -0.000204211991408 0)
(0.657295064352 -0.000281222767173 0)
(0.657579294053 -0.000397295681492 0)
(0.658020880187 -0.000577063774575 0)
(0.658709890682 -0.000868280505166 0)
(0.659794954365 -0.00136187182864 0)
(0.661536462553 -0.00223262487056 0)
(0.664381746004 -0.00384657544756 0)
(0.669036204959 -0.0070105018133 0)
(0.676543311824 -0.0134824731938 0)
(0.688941505715 -0.0271214962846 0)
(0.705840873044 -0.0569464996711 0)
(0.701512204372 -0.114549935013 0)
(1.02251475468 0.170807153119 0)
(1.10138975687 0.276496482052 0)
(1.11752425898 0.266664804926 0)
(1.09214660118 0.219901706023 0)
(1.05187814937 0.168168855194 0)
(1.01020821533 0.123567404148 0)
(0.973494679436 0.0888375285864 0)
(0.943864542514 0.0630063779335 0)
(0.921142784129 0.0442232095162 0)
(0.90428405555 0.0307423966228 0)
(0.892074850378 0.0211562954346 0)
(0.883404491843 0.0143954657114 0)
(0.877352653056 0.00966793906697 0)
(0.873197694155 0.00639381886701 0)
(0.870392925803 0.00415113377133 0)
(0.868534051873 0.00263444297594 0)
(0.867327678682 0.00162394796461 0)
(0.866564310735 0.000962580284866 0)
(0.86609660292 0.00053899554782 0)
(0.865822426736 0.000274990516356 0)
(0.865671662069 0.000116864630548 0)
(0.865595503848 2.85485032375e-05 0)
(0.865564575495 -1.96138555786e-05 0)
(0.86556192414 -4.15989034938e-05 0)
(0.865573431768 -4.80462869673e-05 0)
(0.865590617093 -4.59438109317e-05 0)
(0.865609121398 -3.96066426983e-05 0)
(0.865626667361 -3.16208093949e-05 0)
(0.865642167174 -2.34562174378e-05 0)
(0.865655249609 -1.58799362184e-05 0)
(0.865665943438 -9.2221204547e-06 0)
(0.865674450052 -3.53717349474e-06 0)
(0.865681025364 1.2714573678e-06 0)
(0.865685884481 5.06762274611e-06 0)
(0.865689406906 7.74122244395e-06 0)
(0.86569199138 9.57208708095e-06 0)
(0.86569377107 1.09373217168e-05 0)
(0.865695023745 1.21123498905e-05 0)
(0.865695978254 1.31090349712e-05 0)
(0.865696648193 1.40129003606e-05 0)
(0.865697074033 1.48330741357e-05 0)
(0.865697321557 1.55882978137e-05 0)
(0.865697431855 1.6291323855e-05 0)
(0.865697437582 1.695514062e-05 0)
(0.865697362753 1.75942782004e-05 0)
(0.865697223281 1.82189271643e-05 0)
(0.865697033701 1.88374348344e-05 0)
(0.865696811736 1.94598693043e-05 0)
(0.865696575758 2.01009923201e-05 0)
(0.865696348827 2.07534935804e-05 0)
(0.865696162987 2.14089724146e-05 0)
(0.865696058516 2.20592916301e-05 0)
(0.865696088633 2.26907455244e-05 0)
(0.865696323806 2.32797610681e-05 0)
(0.865696855856 2.37885039972e-05 0)
(0.865697809572 2.41655809128e-05 0)
(0.865699363034 2.43631973031e-05 0)
(0.865701780416 2.431210072e-05 0)
(0.865705452102 2.38390516174e-05 0)
(0.865710829639 2.2576703101e-05 0)
(0.865718304556 1.99012435169e-05 0)
(0.865729452239 1.51741063552e-05 0)
(0.865746876987 6.62060327767e-06 0)
(0.865773582398 -7.54152623834e-06 0)
(0.865813504183 -2.93214859681e-05 0)
(0.865872531531 -6.26292479834e-05 0)
(0.865960020052 -0.000114407873776 0)
(0.866090552477 -0.000195537776543 0)
(0.866286833244 -0.000323473503352 0)
(0.866583977909 -0.000527017997957 0)
(0.867036141197 -0.000855675860338 0)
(0.867729334691 -0.00139732360819 0)
(0.868801559187 -0.00230242311733 0)
(0.870468984489 -0.00384876769155 0)
(0.8730555466 -0.00656680638313 0)
(0.876968678037 -0.0114785222797 0)
(0.882544287546 -0.0204792210189 0)
(0.889983782283 -0.0368939212898 0)
(0.896858844535 -0.0663625006965 0)
(0.887267872267 -0.111753996504 0)
(1.01287875085 0.118961024187 0)
(1.0882067066 0.231806941059 0)
(1.13741366789 0.253106771552 0)
(1.15409086195 0.228992762329 0)
(1.14994210151 0.188368368505 0)
(1.13538464559 0.146579853676 0)
(1.11758893779 0.110150974844 0)
(1.10059499119 0.0808162303233 0)
(1.08612456017 0.0582265832075 0)
(1.07459091352 0.0413189895949 0)
(1.06579145596 0.0289160212565 0)
(1.05928797876 0.0199600953646 0)
(1.0545997549 0.0135815469159 0)
(1.05129075962 0.00909741755664 0)
(1.04899984749 0.00598611119004 0)
(1.04744341438 0.00385690093998 0)
(1.04640655721 0.00242150354794 0)
(1.0457306663 0.00147002028262 0)
(1.04530114534 0.000851530079982 0)
(1.0450366943 0.00045879605387 0)
(1.04488038996 0.000216482780851 0)
(1.04479284956 7.26922343743e-05 0)
(1.04474907357 -5.87310602694e-06 0)
(1.04473227614 -4.44371822346e-05 0)
(1.04473014651 -5.98694159882e-05 0)
(1.04473576326 -6.22495028661e-05 0)
(1.04474485488 -5.7811715931e-05 0)
(1.04475489266 -5.03923282022e-05 0)
(1.04476449567 -4.2240365171e-05 0)
(1.04477299203 -3.45754647554e-05 0)
(1.04478012924 -2.79832731846e-05 0)
(1.04478588983 -2.26695356566e-05 0)
(1.04479041231 -1.85942756971e-05 0)
(1.04479390333 -1.55609299803e-05 0)
(1.04479660037 -1.32114670862e-05 0)
(1.0447987724 -1.13937739962e-05 0)
(1.04480059354 -9.92239924005e-06 0)
(1.04480202086 -8.61245279768e-06 0)
(1.04480306759 -7.53613285535e-06 0)
(1.04480381745 -6.77184434468e-06 0)
(1.04480429526 -6.32484245379e-06 0)
(1.04480457207 -6.0639076156e-06 0)
(1.0448046939 -5.92781955808e-06 0)
(1.04480470204 -5.87525151843e-06 0)
(1.0448046247 -5.86066024329e-06 0)
(1.04480448014 -5.86118063619e-06 0)
(1.04480428851 -5.86732596715e-06 0)
(1.04480407544 -5.87857614995e-06 0)
(1.04480384611 -5.90677531267e-06 0)
(1.04480360614 -5.93767868655e-06 0)
(1.04480338891 -5.96021272837e-06 0)
(1.04480323646 -5.97500862261e-06 0)
(1.04480319947 -5.98767849211e-06 0)
(1.04480334604 -6.01073969753e-06 0)
(1.04480377722 -6.0719788688e-06 0)
(1.04480466262 -6.2424606444e-06 0)
(1.04480624063 -6.72109910198e-06 0)
(1.04480876962 -7.87386384363e-06 0)
(1.04481254314 -1.01358260102e-05 0)
(1.04481799682 -1.38792421489e-05 0)
(1.04482611978 -1.88429896078e-05 0)
(1.04483812496 -2.50034336619e-05 0)
(1.0448552305 -3.46232393662e-05 0)
(1.04487968929 -5.06916069988e-05 0)
(1.04491498925 -7.75191598482e-05 0)
(1.04496628105 -0.000121428888228 0)
(1.04504118846 -0.000192293328323 0)
(1.04515110096 -0.000305845659289 0)
(1.04531325631 -0.000487524664336 0)
(1.04555371498 -0.000778826388779 0)
(1.04591156277 -0.00124787860143 0)
(1.04644534567 -0.00200766133137 0)
(1.04724035443 -0.00325114352518 0)
(1.0484115768 -0.00531349592371 0)
(1.05008965242 -0.00877958168899 0)
(1.05233622048 -0.0146580895417 0)
(1.05491349979 -0.024584038869 0)
(1.05703642819 -0.0409184723293 0)
(1.05599179095 -0.066588242492 0)
(1.04242863751 -0.10122842054 0)
(1.00447483427 0.0814039982988 0)
(1.06917237142 0.181288543228 0)
(1.13080568317 0.216950425896 0)
(1.17374999901 0.21078916459 0)
(1.19865264667 0.183690086735 0)
(1.21019987524 0.149751693106 0)
(1.21350255387 0.116779153163 0)
(1.21251723847 0.0882206857495 0)
(1.20973098275 0.0650481570539 0)
(1.20651119764 0.0470209123841 0)
(1.20351913589 0.0334068078777 0)
(1.20101145564 0.023355725423 0)
(1.1990344554 0.0160719969662 0)
(1.19753878373 0.0108794827416 0)
(1.19644131903 0.00723413759105 0)
(1.19565559094 0.00471344219978 0)
(1.19510489746 0.00299751995443 0)
(1.19472648937 0.00184901144665 0)
(1.19447151671 0.00109476336339 0)
(1.19430321889 0.000610359741125 0)
(1.1941945967 0.000307674580236 0)
(1.19412633619 0.000125393025621 0)
(1.19408531372 2.17776433203e-05 0)
(1.19406208769 -3.29651849114e-05 0)
(1.19404982828 -5.7842342563e-05 0)
(1.19404437315 -6.52222560809e-05 0)
(1.19404292319 -6.30466205858e-05 0)
(1.19404365994 -5.62267735277e-05 0)
(1.19404546664 -4.76717606452e-05 0)
(1.19404768402 -3.89956161183e-05 0)
(1.19404993847 -3.10014389627e-05 0)
(1.19405203551 -2.39979550401e-05 0)
(1.19405390188 -1.80103079741e-05 0)
(1.19405553187 -1.29613524858e-05 0)
(1.19405694174 -8.74327505583e-06 0)
(1.19405814953 -5.28635683771e-06 0)
(1.19405914524 -2.5707042358e-06 0)
(1.19405988459 -5.81702112395e-07 0)
(1.19406032052 8.37105212884e-07 0)
(1.19406047004 1.77264808345e-06 0)
(1.19406051388 2.50439808172e-06 0)
(1.19406054911 3.15291427935e-06 0)
(1.19406053317 3.72713364824e-06 0)
(1.194060478 4.2386580983e-06 0)
(1.19406038768 4.69088194014e-06 0)
(1.19406024701 5.09759045664e-06 0)
(1.19406005154 5.4703948815e-06 0)
(1.19405980177 5.80939306266e-06 0)
(1.19405952733 6.09902292679e-06 0)
(1.194059272 6.35715292577e-06 0)
(1.19405905947 6.60172434375e-06 0)
(1.19405892204 6.82251199598e-06 0)
(1.19405891157 6.99478169696e-06 0)
(1.19405909316 7.07994069523e-06 0)
(1.19405953028 7.0208116091e-06 0)
(1.19406023756 6.73507045547e-06 0)
(1.1940611932 6.08438749586e-06 0)
(1.19406252092 4.76464326089e-06 0)
(1.19406467543 2.20862383825e-06 0)
(1.19406878421 -1.79815097049e-06 0)
(1.19407572884 -8.02147689619e-06 0)
(1.19408530526 -1.78637617163e-05 0)
(1.19409812184 -3.33636189784e-05 0)
(1.19411612563 -5.74190220169e-05 0)
(1.19414145412 -9.46353663155e-05 0)
(1.19417690257 -0.000152380734787 0)
(1.194226438 -0.000242408793132 0)
(1.19429566784 -0.000383374485382 0)
(1.19439245472 -0.000605064718655 0)
(1.19452758996 -0.000955386950623 0)
(1.19471525964 -0.00151184037389 0)
(1.19497243694 -0.00240023276148 0)
(1.19531422067 -0.00382662181872 0)
(1.19573841288 -0.00612890010909 0)
(1.19618539766 -0.00985454975691 0)
(1.19643583757 -0.0158625029731 0)
(1.19590140188 -0.0253897996674 0)
(1.19342012512 -0.0399355485846 0)
(1.18663354915 -0.0608094713052 0)
(1.16996121535 -0.0867898613808 0)
(0.998962325116 0.054431625984 0)
(1.05310956623 0.133401611722 0)
(1.11628267824 0.170777565033 0)
(1.17301271492 0.175143880651 0)
(1.21791245843 0.159583615695 0)
(1.25049857639 0.134951029291 0)
(1.27288491123 0.108411665238 0)
(1.28776722398 0.0838849790014 0)
(1.29745268567 0.0630565778 0)
(1.30366075892 0.0462999242689 0)
(1.30759235408 0.0333205137182 0)
(1.31005371268 0.0235495166771 0)
(1.31157363551 0.0163598909233 0)
(1.31249493471 0.0111712844787 0)
(1.31303862136 0.00749145682323 0)
(1.31334670339 0.00492441048747 0)
(1.31351010408 0.00316284720433 0)
(1.31358671677 0.00197460378531 0)
(1.31361307145 0.00118800138775 0)
(1.31361189541 0.00067837952968 0)
(1.31359702577 0.000356698672375 0)
(1.31357666696 0.000160380031584 0)
(1.31355562705 4.60249996646e-05 0)
(1.31353628658 -1.63852214188e-05 0)
(1.31351957921 -4.66304142531e-05 0)
(1.31350582887 -5.76949584202e-05 0)
(1.31349485957 -5.79971555829e-05 0)
(1.31348633574 -5.2795232629e-05 0)
(1.31347986966 -4.52562809257e-05 0)
(1.31347507738 -3.72031008902e-05 0)
(1.31347160915 -2.96082624161e-05 0)
(1.31346916323 -2.29251484125e-05 0)
(1.3134674839 -1.73045786366e-05 0)
(1.31346634585 -1.2750591721e-05 0)
(1.31346557931 -9.19929491662e-06 0)
(1.31346508325 -6.55177438307e-06 0)
(1.31346476743 -4.67840207702e-06 0)
(1.31346453619 -3.40055353187e-06 0)
(1.31346435484 -2.49668394992e-06 0)
(1.31346432953 -1.76788332627e-06 0)
(1.31346445997 -1.13342306386e-06 0)
(1.31346455918 -6.60764216506e-07 0)
(1.31346456087 -2.6019632201e-07 0)
(1.31346448371 1.2132575759e-07 0)
(1.31346434517 4.78743244151e-07 0)
(1.31346416229 8.16748496024e-07 0)
(1.31346393914 1.14820497925e-06 0)
(1.31346367626 1.48930013557e-06 0)
(1.31346339189 1.85916888177e-06 0)
(1.31346311709 2.23532199196e-06 0)
(1.31346286266 2.57842386674e-06 0)
(1.31346263811 2.85983511655e-06 0)
(1.31346247431 3.03975426321e-06 0)
(1.31346241811 3.05682572878e-06 0)
(1.31346254235 2.82226116647e-06 0)
(1.31346296154 2.22284106794e-06 0)
(1.31346375177 1.15913441896e-06 0)
(1.31346484755 -4.74834440578e-07 0)
(1.3134666451 -2.85745548656e-06 0)
(1.3134694669 -6.57690119026e-06 0)
(1.31347340517 -1.3028158904e-05 0)
(1.31347872054 -2.38594810867e-05 0)
(1.31348565429 -4.06663000461e-05 0)
(1.31349465005 -6.65901294269e-05 0)
(1.31350599104 -0.000106678254984 0)
(1.31351970158 -0.000168731693656 0)
(1.31353533889 -0.000264937250812 0)
(1.31355148799 -0.00041439698046 0)
(1.31356478871 -0.000647246950445 0)
(1.31356810815 -0.00101128736438 0)
(1.31354723315 -0.0015825457284 0)
(1.31347433058 -0.00248142881482 0)
(1.31329435808 -0.00389795354054 0)
(1.31289858996 -0.00612921646257 0)
(1.31207498346 -0.00962762995924 0)
(1.31041416351 -0.0150479868459 0)
(1.3071546575 -0.0232402017848 0)
(1.30107062379 -0.0350782902293 0)
(1.29026184522 -0.0510474563042 0)
(1.271193216 -0.0699789432769 0)
(0.99573607357 0.0346338602812 0)
(1.04179514216 0.0905689246316 0)
(1.10222838521 0.121549570878 0)
(1.16491411569 0.129605841607 0)
(1.22202566504 0.12200927656 0)
(1.26951892552 0.106019946185 0)
(1.30680224754 0.0870975629264 0)
(1.33499536852 0.0686366867745 0)
(1.35574479509 0.0523698431157 0)
(1.37069619324 0.0389256197788 0)
(1.38128278461 0.0282980718173 0)
(1.38866270749 0.0201712703762 0)
(1.39373036116 0.0141174957419 0)
(1.39715662774 0.00970530991961 0)
(1.39943435574 0.00655055326854 0)
(1.40091965664 0.0043343915244 0)
(1.40186617304 0.00280405471952 0)
(1.4024521532 0.00176561956179 0)
(1.40280119832 0.00107403194964 0)
(1.40299782891 0.000623026357442 0)
(1.40309896849 0.000336150136485 0)
(1.40314232274 0.000159310495761 0)
(1.40315246312 5.47982183228e-05 0)
(1.40314484988 -3.40784710937e-06 0)
(1.4031289506 -3.25970122151e-05 0)
(1.40311038078 -4.44184279972e-05 0)
(1.40309216521 -4.63310753535e-05 0)
(1.40307583065 -4.30210026145e-05 0)
(1.40306198101 -3.73502985321e-05 0)
(1.40305069349 -3.09940377539e-05 0)
(1.40304177018 -2.48666500301e-05 0)
(1.40303488966 -1.94150688375e-05 0)
(1.40302969514 -1.48084468426e-05 0)
(1.40302583962 -1.10535716717e-05 0)
(1.40302302432 -8.054559049e-06 0)
(1.40302101462 -5.68741686994e-06 0)
(1.40301963322 -3.83073959508e-06 0)
(1.40301873704 -2.35218612977e-06 0)
(1.40301817226 -1.13078351609e-06 0)
(1.40301775567 -1.3624824194e-07 0)
(1.40301738437 6.41536559858e-07 0)
(1.40301711694 1.19933793274e-06 0)
(1.40301697664 1.62473918007e-06 0)
(1.40301687666 1.9846944936e-06 0)
(1.4030167667 2.32521904354e-06 0)
(1.40301663453 2.66780633268e-06 0)
(1.40301647695 3.02303417104e-06 0)
(1.40301629375 3.39743076521e-06 0)
(1.40301608044 3.79514299665e-06 0)
(1.40301583074 4.19753174997e-06 0)
(1.40301556122 4.57034991083e-06 0)
(1.40301530264 4.88822210765e-06 0)
(1.40301508008 5.11588642506e-06 0)
(1.40301491962 5.19893443415e-06 0)
(1.4030148445 5.05514025022e-06 0)
(1.40301486252 4.55461671154e-06 0)
(1.40301495639 3.49702854383e-06 0)
(1.40301517922 1.69613221052e-06 0)
(1.40301559399 -1.06318218475e-06 0)
(1.4030163364 -5.70299930488e-06 0)
(1.40301744423 -1.29806643765e-05 0)
(1.4030185366 -2.42093929753e-05 0)
(1.40301906703 -4.12305661878e-05 0)
(1.40301824043 -6.70128170019e-05 0)
(1.40301451033 -0.000106148515971 0)
(1.40300504791 -0.00016570829096 0)
(1.40298495961 -0.000256654717563 0)
(1.40294588007 -0.000395920162472 0)
(1.40287353345 -0.000609818623033 0)
(1.40274370496 -0.000939449572686 0)
(1.40251598279 -0.00144912166724 0)
(1.40212303982 -0.00223809057896 0)
(1.4014513453 -0.00345779233874 0)
(1.40030980137 -0.00533585688171 0)
(1.39838057995 -0.00820139723532 0)
(1.39514270623 -0.0124994594303 0)
(1.38976966178 -0.0187571013966 0)
(1.38109059626 -0.0274359190034 0)
(1.36757112755 -0.0386498363429 0)
(1.34675578746 -0.0515432914371 0)
(0.994011530698 0.019235806239 0)
(1.03484763395 0.0523338427822 0)
(1.09199262429 0.0723631317981 0)
(1.15662419816 0.079129237565 0)
(1.22032116447 0.0761045521886 0)
(1.27701945805 0.0673339767584 0)
(1.32424419998 0.0561509078214 0)
(1.36181575333 0.044799014143 0)
(1.39068533169 0.0345303794747 0)
(1.41226077929 0.0258814328504 0)
(1.42801825422 0.0189465223253 0)
(1.43929887324 0.0135849772966 0)
(1.4472281016 0.00955652470693 0)
(1.45270414608 0.00660009876976 0)
(1.45641895176 0.0044741636203 0)
(1.45889140789 0.0029734735351 0)
(1.46050223033 0.00193271152773 0)
(1.46152556949 0.0012236151959 0)
(1.46215550946 0.000749446222008 0)
(1.46252723769 0.00043888358444 0)
(1.4627333953 0.000240353568386 0)
(1.46283639521 0.000117208486337 0)
(1.4628775336 4.38102793588e-05 0)
(1.4628835682 2.42268875421e-06 0)
(1.4628712121 -1.87579511082e-05 0)
(1.46285062085 -2.7789717474e-05 0)
(1.46282780654 -2.98195483383e-05 0)
(1.46280598782 -2.80922880165e-05 0)
(1.46278669967 -2.46048296839e-05 0)
(1.46277049197 -2.05369567335e-05 0)
(1.46275736158 -1.65377899808e-05 0)
(1.46274702029 -1.29302065467e-05 0)
(1.46273906274 -9.84164785152e-06 0)
(1.46273306092 -7.28558620018e-06 0)
(1.46272861856 -5.21016315764e-06 0)
(1.46272539536 -3.54569002856e-06 0)
(1.46272310767 -2.22692803051e-06 0)
(1.46272150693 -1.21132460781e-06 0)
(1.46272036317 -4.62007013225e-07 0)
(1.46271961212 1.09661992965e-07 0)
(1.46271916361 6.14786091925e-07 0)
(1.46271885315 1.12245715931e-06 0)
(1.46271863688 1.59158211006e-06 0)
(1.46271847693 2.01459142095e-06 0)
(1.46271833913 2.41046815437e-06 0)
(1.46271820103 2.79374917021e-06 0)
(1.46271804667 3.1711355038e-06 0)
(1.46271786548 3.54206756051e-06 0)
(1.46271765107 3.89986188206e-06 0)
(1.46271740025 4.23962258392e-06 0)
(1.46271711582 4.55479329312e-06 0)
(1.46271680355 4.8154820643e-06 0)
(1.46271646814 4.97448182338e-06 0)
(1.46271611565 4.96566245955e-06 0)
(1.46271575486 4.69984463523e-06 0)
(1.46271540137 4.0640816811e-06 0)
(1.46271507844 2.93220261176e-06 0)
(1.46271468865 1.20126813216e-06 0)
(1.46271400389 -1.41557633426e-06 0)
(1.4627128689 -5.58478920154e-06 0)
(1.46271102548 -1.21621985419e-05 0)
(1.46270780136 -2.22733943983e-05 0)
(1.46270204858 -3.74393110833e-05 0)
(1.46269190856 -6.00189605443e-05 0)
(1.46267424159 -9.35885711589e-05 0)
(1.46264378351 -0.000143557606054 0)
(1.46259195246 -0.000218175097294 0)
(1.46250476297 -0.000329805500825 0)
(1.46235925228 -0.000497189931856 0)
(1.46211778568 -0.000749108329709 0)
(1.46172000819 -0.00113044381336 0)
(1.46106991479 -0.00170821118412 0)
(1.46001333926 -0.00258007036622 0)
(1.45830542789 -0.00388819306951 0)
(1.45556592199 -0.00582886396456 0)
(1.45121892845 -0.00865147981107 0)
(1.44442709093 -0.0126258817102 0)
(1.43409459411 -0.017946492519 0)
(1.418920305 -0.0245798350364 0)
(1.39699486418 -0.0320001739566 0)
(0.99326966661 0.00617014990439 0)
(1.03158099776 0.0171020474168 0)
(1.0867218151 0.0239906514183 0)
(1.15174554256 0.0265606693536 0)
(1.21823536376 0.0258180623032 0)
(1.27925774672 0.0230488889373 0)
(1.33140137077 0.0193656332051 0)
(1.37377600507 0.0155468586103 0)
(1.40691055849 0.0120449299713 0)
(1.43203316464 0.00906639885619 0)
(1.45060218281 0.00666059340983 0)
(1.46402989126 0.00479008966595 0)
(1.47355018807 0.00337842583811 0)
(1.48017564842 0.00233873453209 0)
(1.48470228036 0.0015889084993 0)
(1.4877361633 0.00105828032142 0)
(1.4897272525 0.000689449656447 0)
(1.49100261594 0.000437619219761 0)
(1.49179560803 0.000268858763991 0)
(1.49226986614 0.000158074505515 0)
(1.49253821826 8.70765513391e-05 0)
(1.49267712571 4.29131985596e-05 0)
(1.49273746023 1.65055041371e-05 0)
(1.49275240083 1.55859345183e-06 0)
(1.4927428999 -6.17884762106e-06 0)
(1.49272182349 -9.53423105505e-06 0)
(1.49269686652 -1.03521659495e-05 0)
(1.49267226208 -9.79850359265e-06 0)
(1.49265011476 -8.59090238144e-06 0)
(1.49263127195 -7.14782990347e-06 0)
(1.49261586277 -5.7078186124e-06 0)
(1.49260363255 -4.39128278053e-06 0)
(1.49259415785 -3.2462676457e-06 0)
(1.49258696848 -2.27980071311e-06 0)
(1.49258161459 -1.47617021734e-06 0)
(1.49257769902 -8.13275093457e-07 0)
(1.49257488762 -2.69310159823e-07 0)
(1.49257291041 1.74773282822e-07 0)
(1.49257157209 5.56516563517e-07 0)
(1.49257069162 9.51864693056e-07 0)
(1.49257010466 1.28785677302e-06 0)
(1.49256971947 1.59782641966e-06 0)
(1.49256947446 1.90502848514e-06 0)
(1.49256931448 2.21926896022e-06 0)
(1.49256919543 2.54818235379e-06 0)
(1.4925690869 2.89537443433e-06 0)
(1.4925689675 3.26117535623e-06 0)
(1.49256882175 3.64293533856e-06 0)
(1.49256863791 4.03403725437e-06 0)
(1.49256840659 4.42328191596e-06 0)
(1.49256812149 4.79309395348e-06 0)
(1.49256777739 5.11420374608e-06 0)
(1.49256736648 5.34516344481e-06 0)
(1.49256687655 5.42831173996e-06 0)
(1.49256628753 5.28362880426e-06 0)
(1.49256556992 4.79935390337e-06 0)
(1.49256470228 3.81681021175e-06 0)
(1.49256358328 2.13973467833e-06 0)
(1.49256177358 -3.23537646614e-07 0)
(1.49255890035 -3.89896555057e-06 0)
(1.49255457455 -9.45377005158e-06 0)
(1.49254779834 -1.7728380498e-05 0)
(1.49253693111 -2.97273077428e-05 0)
(1.49251938171 -4.69685162366e-05 0)
(1.49249095247 -7.15644894531e-05 0)
(1.49244478344 -0.000106510549622 0)
(1.49237001398 -0.000156266168164 0)
(1.49224935866 -0.000226918795621 0)
(1.4920547537 -0.000327020623478 0)
(1.49174028725 -0.000469670832247 0)
(1.49123409535 -0.000677252645094 0)
(1.49042592725 -0.000978858348494 0)
(1.48914188317 -0.0014087208369 0)
(1.48711194187 -0.00201575693738 0)
(1.48393055182 -0.00286244549071 0)
(1.47900602759 -0.00401802758548 0)
(1.47151276146 -0.00553960957857 0)
(1.46040848313 -0.0074328700732 0)
(1.44450261644 -0.00960926926558 0)
(1.4221215649 -0.0118260511043 0)
(0.993270464351 -0.00616840274265 0)
(1.03158098013 -0.0171003757305 0)
(1.0867217484 -0.0239897608105 0)
(1.15174557979 -0.0265602459653 0)
(1.21823544135 -0.0258179927524 0)
(1.27925784862 -0.0230491107141 0)