/*--------------------------------*- C++ -*----------------------------------*\
| =========                 |                                                 |
| \\      /  F ield         | OpenFOAM: The Open Source CFD Toolbox           |
|  \\    /   O peration     | Version:  2106                                  |
|   \\  /    A nd           | Website:  www.openfoam.com                      |
|    \\/     M anipulation  |                                                 |
\*---------------------------------------------------------------------------*/
FoamFile
{
    version     2.0;
    format      ascii;
    arch        "LSB;label=32;scalar=64";
    class       surfaceScalarField;
    location    "0.35";
    object      phi;
}
// * * * * * * * * * * * * * * * * * * * * * * * * * * * * * * * * * * * * * //

dimensions      [0 3 -1 0 0 0 0];

oriented        oriented;

internalField   nonuniform List<scalar> 
22100
(
3.38461206549e-05
1.61538793327e-05
2.24572108511e-05
1.13889101731e-05
1.62585545517e-05
6.19865662177e-06
1.27977781242e-05
3.46077673002e-06
1.08046448011e-05
1.99313363407e-06
9.60459232692e-06
1.20005279493e-06
8.85132511141e-06
7.53267542435e-07
8.36435682236e-06
4.86968614517e-07
8.04433943481e-06
3.20017701516e-07
7.83284508636e-06
2.11494640229e-07
7.69340230816e-06
1.39443038557e-07
7.60224573276e-06
9.11567951457e-08
7.54348318065e-06
5.87627257503e-08
7.50634641249e-06
3.71368942135e-08
7.48350697055e-06
2.28395212209e-08
7.46998614383e-06
1.35208636188e-08
7.46242145652e-06
7.56468612414e-09
7.45855330118e-06
3.86811648063e-09
7.45683415648e-06
1.7190727652e-09
7.45642731032e-06
4.06750870429e-10
7.45677689328e-06
-3.49697911035e-10
7.45746278742e-06
-6.86041034247e-10
7.45822081238e-06
-7.5819898501e-10
7.4589457665e-06
-7.25154227582e-10
7.45958968913e-06
-6.44158163583e-10
7.46013319972e-06
-5.43783028762e-10
7.46057485708e-06
-4.41965796941e-10
7.46092311985e-06
-3.4860692139e-10
7.46119090046e-06
-2.6815815693e-10
7.46139229174e-06
-2.01798466941e-10
7.46154068115e-06
-1.48821764333e-10
7.46164778508e-06
-1.07553358262e-10
7.46172334205e-06
-7.60159045953e-11
7.46177549787e-06
-5.26157991896e-11
7.46180820512e-06
-3.31631540184e-11
7.46182647177e-06
-1.87070761055e-11
7.46183506918e-06
-9.02725450806e-12
7.46183742182e-06
-2.77833238185e-12
7.46183547165e-06
1.53989760248e-12
7.46183034504e-06
4.7263166226e-12
7.46182295324e-06
6.98249211785e-12
7.46181389458e-06
8.63792706134e-12
7.46180352983e-06
9.92601183471e-12
7.46179203592e-06
1.10372756134e-11
7.46177943052e-06
1.21384815984e-11
7.46176561388e-06
1.33526644695e-11
7.46175038512e-06
1.47846569606e-11
7.46173345224e-06
1.65244720021e-11
7.46171441661e-06
1.86767262152e-11
7.46169274762e-06
2.13791454408e-11
7.46166783668e-06
2.46973689523e-11
7.4616389564e-06
2.87232341229e-11
7.46160527447e-06
3.35450559984e-11
7.46156590281e-06
3.92314580897e-11
7.46151993378e-06
4.57958777192e-11
7.4614665232e-06
5.31806832541e-11
7.46140503098e-06
6.11884311834e-11
7.46133534259e-06
6.93011252041e-11
7.46125827441e-06
7.66912262655e-11
7.46117630591e-06
8.15868068209e-11
7.46109576251e-06
8.00795405638e-11
7.46102874158e-06
6.65218190658e-11
7.46098287742e-06
4.5387659515e-11
7.46097756173e-06
4.85677354587e-12
7.46104864942e-06
-7.16168109057e-11
7.46125445169e-06
-2.06328533361e-10
7.46168943015e-06
-4.35510971242e-10
7.46250356054e-06
-8.14741735112e-10
7.46393206285e-06
-1.42918670147e-09
7.46633036701e-06
-2.39904041566e-09
7.47014782745e-06
-3.81821512819e-09
7.4765954577e-06
-6.44839078407e-09
7.48736446652e-06
-1.07697667378e-08
7.50553682489e-06
-1.81731065368e-08
7.5387186783e-06
-3.31825672735e-08
7.60792795463e-06
-6.92099405351e-08
7.77458016062e-06
-1.66652809872e-07
8.22946997076e-06
-4.5489029847e-07
9.69703989701e-06
-1.46757014775e-06
-5.45120542816e-06
1.51482448376e-05
5.02175952245e-05
1.59362844943e-05
4.4244112638e-05
1.73623933817e-05
3.77795031041e-05
1.26632667287e-05
3.26461461851e-05
8.5941342191e-06
2.89380946161e-05
5.70118578523e-06
2.63596247481e-05
3.77852325062e-06
2.45875208496e-05
2.52537202152e-06
2.33734792774e-05
1.7010107428e-06
2.25435306806e-05
1.14996681281e-06
2.19782224047e-05
7.76803371378e-07
2.1595520235e-05
5.22145591457e-07
2.13387439697e-05
3.47933362509e-07
2.1168502682e-05
2.29004229908e-07
2.1057345242e-05
1.48294467087e-07
2.09861574363e-05
9.40273821389e-08
2.09416851099e-05
5.79931754048e-08
2.09148032958e-05
3.44464253759e-08
2.08993041553e-05
1.93671385584e-08
2.08910802811e-05
9.94277574798e-09
2.0887279853e-05
4.20695425157e-09
2.08862106284e-05
7.19254568294e-10
2.08864560646e-05
-9.31793718413e-10
2.08873271622e-05
-1.62967652787e-09
2.08884662704e-05
-1.86470105191e-09
2.08896391564e-05
-1.8175444957e-09
2.08907216551e-05
-1.6268475364e-09
2.08916587121e-05
-1.37965345669e-09
2.08924356605e-05
-1.12624441853e-09
2.08930602728e-05
-8.93510210506e-10
2.08935517694e-05
-6.94077075223e-10
2.08939349387e-05
-5.32803035905e-10
2.08942357824e-05
-4.09222844527e-10
2.08944460574e-05
-2.87121691365e-10
2.08945924388e-05
-1.9981789855e-10
2.08946921348e-05
-1.3367911547e-10
2.08947568619e-05
-8.42369343264e-11
2.08947968088e-05
-4.97340105256e-11
2.08948201286e-05
-2.68422659525e-11
2.089483163e-05
-1.07018996246e-11
2.08948342442e-05
1.36961705616e-12
2.08948303692e-05
1.00926449678e-11
2.08948216634e-05
1.65525068945e-11
2.08948092602e-05
2.15122403235e-11
2.08947938774e-05
2.55900091628e-11
2.08947758928e-05
2.92987034104e-11
2.08947554741e-05
3.29877827556e-11
2.08947326255e-05
3.69181438984e-11
2.08947072419e-05
4.12885449823e-11
2.08946791483e-05
4.62647974704e-11
2.08946480614e-05
5.20560433071e-11
2.08946137693e-05
5.86703947823e-11
2.08945761089e-05
6.61158154285e-11
2.08945350505e-05
7.43288256814e-11
2.08944908704e-05
8.30777920166e-11
2.08944444003e-05
9.18283978494e-11
2.08943974277e-05
9.96019072025e-11
2.08943533444e-05
1.04646708564e-10
2.08943180821e-05
1.03783291598e-10
2.08943012489e-05
9.27125573231e-11
2.08943182048e-05
6.38268484481e-11
2.08943959322e-05
1.52350099238e-12
2.08945830583e-05
-1.2148480882e-10
2.08949480548e-05
-3.20551059083e-10
2.08956097613e-05
-6.57746622286e-10
2.08966754334e-05
-1.13819213752e-09
2.08983226109e-05
-1.85456710297e-09
2.09009091046e-05
-3.02313171212e-09
2.09049827242e-05
-4.88957038996e-09
2.0911412553e-05
-7.8602951385e-09
2.09216221099e-05
-1.26099402287e-08
2.09381013021e-05
-2.02987958208e-08
2.0964995148e-05
-3.33436308778e-08
2.10092425472e-05
-5.50185103975e-08
2.10840148059e-05
-9.29466211658e-08
2.1215235036e-05
-1.64403949798e-07
2.14558050193e-05
-3.09780974137e-07
2.19135680043e-05
-6.24416837559e-07
2.28004106508e-05
-1.3417342952e-06
2.44441015813e-05
-3.11126266761e-06
-7.03733840991e-06
2.60302381653e-05
5.35171056977e-05
1.24191791185e-05
5.29349693108e-05
1.79445303263e-05
4.96538416843e-05
1.59443948669e-05
4.58401835591e-05
1.24077928549e-05
4.24400950781e-05
9.10127478514e-06
3.97291756215e-05
6.48944322857e-06
3.76873096256e-05
4.56723853056e-06
3.6197667247e-05
3.19065361044e-06
3.51326170192e-05
2.21501749026e-06
3.43823723222e-05
1.52704846403e-06
3.38606316371e-05
1.0438866071e-06
3.35023516315e-05
7.06213626425e-07
3.32596069024e-05
4.71749143257e-07
3.30975967087e-05
3.1030477414e-07
3.29913406872e-05
2.0028345369e-07
3.29230988051e-05
1.2623505086e-07
3.28804107916e-05
7.71343783465e-08
3.28546255327e-05
4.5152284988e-08
3.28397982569e-05
2.47698969925e-08
3.28318715183e-05
1.21334911935e-08
3.28280017721e-05
4.5887612828e-09
3.28270028088e-05
6.68788504991e-11
3.28271831986e-05
-1.81040290004e-09
3.28280311777e-05
-2.71307068895e-09
3.28291464618e-05
-2.93327356489e-09
3.28302931663e-05
-2.77405166061e-09
3.28313485424e-05
-2.43558371575e-09
3.28322582866e-05
-2.03659342469e-09
3.28330075543e-05
-1.64342765639e-09
3.28336024339e-05
-1.28964892484e-09
3.283405788e-05
-9.88966668907e-10
3.28343920117e-05
-7.4409240644e-10
3.28346575057e-05
-5.53365452441e-10
3.28348729893e-05
-4.16048542989e-10
3.28350193327e-05
-2.80732693014e-10
3.28351177133e-05
-1.83312811066e-10
3.28351827702e-05
-1.15452387539e-10
3.28352239218e-05
-6.86302687279e-11
3.28352480297e-05
-3.54455926982e-11
3.28352590567e-05
-1.02967289568e-11
3.28352605506e-05
7.94177753392e-12
3.28352550004e-05
2.1422990472e-11
3.28352442233e-05
3.15868004708e-11
3.28352294544e-05
3.96478428039e-11
3.28352114492e-05
4.65916066924e-11
3.28351906916e-05
5.30644950511e-11
3.28351675005e-05
5.94827070555e-11
3.28351421063e-05
6.61292439299e-11
3.28351146685e-05
7.32520586757e-11
3.28350851608e-05
8.1192379908e-11
3.28350538972e-05
8.96424587762e-11
3.2835021449e-05
9.83107029703e-11
3.28349888272e-05
1.06689804736e-10
3.28349577911e-05
1.13795500372e-10
3.28349313111e-05
1.17883108539e-10
3.28349140211e-05
1.16326180387e-10
3.28349130968e-05
1.04953460548e-10
3.28349399626e-05
7.61071528659e-11
3.28350120669e-05
1.98112867207e-11
3.2835159338e-05
-8.41738991572e-11
3.28354331494e-05
-2.73023862411e-10
3.28359227355e-05
-6.11814871781e-10
3.2836640666e-05
-1.03928526008e-09
3.28376837954e-05
-1.70169549429e-09
3.2839311028e-05
-2.76628572809e-09
3.28418972175e-05
-4.44164601278e-09
3.28459463882e-05
-7.07325656015e-09
3.28522728844e-05
-1.12170975919e-08
3.28621894851e-05
-1.7778016512e-08
3.28778601444e-05
-2.82817895232e-08
3.29029444711e-05
-4.53843367334e-08
3.29427919153e-05
-7.31922786342e-08
3.30072293381e-05
-1.19457091383e-07
3.31132339107e-05
-1.98952279601e-07
3.32898097173e-05
-3.40980755267e-07
3.35851455595e-05
-6.05117677416e-07
3.40702964673e-05
-1.10956839886e-06
3.48113617657e-05
-2.08280052056e-06
3.56721041338e-05
-3.9720090053e-06
-7.10542597439e-06
3.57401806483e-05
5.35105668188e-05
8.908612603e-06
5.55742232281e-05
1.58808744848e-05
5.52424840975e-05
1.62761345151e-05
5.35977881265e-05
1.4052489341e-05
5.15418504362e-05
1.11572129953e-05
4.95802832183e-05
8.45101096358e-06
4.79243547197e-05
6.22316753332e-06
4.66181433326e-05
4.49686547349e-06
4.56304709726e-05
3.20269028303e-06
4.49051224138e-05
2.25239740039e-06
4.43840955558e-05
1.56491377726e-06
4.40166996737e-05
1.07360974823e-06
4.37619733834e-05
7.26475599078e-07
4.35882749167e-05
4.8400333472e-07
4.34718756375e-05
3.16682760177e-07
4.33953655903e-05
2.0274506384e-07
4.3346195287e-05
1.26304600507e-07
4.3315457601e-05
7.58898448949e-08
4.32969211167e-05
4.33062153647e-08
4.32862948834e-05
2.27595132331e-08
4.32806918287e-05
1.01915623502e-08
4.32778839032e-05
2.87451032551e-09
4.32770558073e-05
-9.82651088226e-10
4.32772733524e-05
-2.93100836491e-09
4.32779604991e-05
-3.62086368672e-09
4.32788231182e-05
-3.63716483899e-09
4.32796954393e-05
-3.30844864827e-09
4.32804923471e-05
-2.83409151979e-09
4.32811774945e-05
-2.32920323279e-09
4.32817426681e-05
-1.85548633657e-09
4.32821947089e-05
-1.44169784519e-09
4.32825463208e-05
-1.09641611458e-09
4.32828072776e-05
-8.15034619586e-10
4.32829818602e-05
-5.91318874621e-10
4.32831141376e-05
-4.13701433773e-10
4.32831987974e-05
-2.68631863838e-10
4.32832521293e-05
-1.69428920227e-10
4.32832913263e-05
-1.08439681394e-10
4.32833151622e-05
-5.98864408785e-11
4.32833266324e-05
-2.23761280176e-11
4.32833291524e-05
4.80666882443e-12
4.32833246719e-05
2.52707183381e-11
4.32833148861e-05
4.07169741665e-11
4.32833009658e-05
5.2902328346e-11
4.32832835658e-05
6.33164271953e-11
4.32832631628e-05
7.28216733391e-11
4.32832401056e-05
8.19310680794e-11
4.32832147088e-05
9.09792884239e-11
4.3283187353e-05
1.00149203877e-10
4.32831586291e-05
1.09527256038e-10
4.32831291672e-05
1.18755889582e-10
4.32830999176e-05
1.27223154771e-10
4.32830723265e-05
1.33922282621e-10
4.32830484663e-05
1.37227224297e-10
4.32830312292e-05
1.34561613092e-10
4.32830250312e-05
1.21797615178e-10
4.32830380922e-05
9.11520150645e-11
4.32830823927e-05
3.09243958889e-11
4.32831772473e-05
-7.59444699e-11
4.32833390642e-05
-2.46765340369e-10
4.32835822362e-05
-5.16999185544e-10
4.32840268024e-05
-1.05711255212e-09
4.32848005925e-05
-1.81390871789e-09
4.32860566318e-05
-2.95855076508e-09
4.32880028465e-05
-4.71330856788e-09
4.32909892911e-05
-7.4289338745e-09
4.32955756115e-05
-1.16604836373e-08
4.33026403666e-05
-1.8282833556e-08
4.33135654735e-05
-2.87041852327e-08
4.33305083883e-05
-4.52258335082e-08
4.33567773672e-05
-7.16544726501e-08
4.33979409215e-05
-1.14356976745e-07
4.34628467787e-05
-1.8436405121e-07
4.35652123557e-05
-3.01318899394e-07
4.37249800646e-05
-5.00749454263e-07
4.39667253173e-05
-8.46863841616e-07
4.43070804642e-05
-1.44992404325e-06
4.47072974977e-05
-2.48301690322e-06
4.49264161589e-05
-4.19112668482e-06
-6.5760194013e-06
4.43970037848e-05
5.27351383457e-05
6.17347457186e-06
5.57309354221e-05
1.28850780098e-05
5.73114758355e-05
1.46955946476e-05
5.76109939152e-05
1.37529718008e-05
5.71335253409e-05
1.16346821086e-05
5.63194714297e-05
9.26506540382e-06
5.54489918747e-05
7.09364759719e-06
5.46629819132e-05
5.28287591061e-06
5.40136869146e-05
3.85198570995e-06
5.35061560998e-05
2.75992858532e-06
5.31242606515e-05
1.94680952966e-06
5.28449915299e-05
1.3528791036e-06
5.2645445659e-05
9.26021632108e-07
5.25057217413e-05
6.2372734621e-07
5.24097272502e-05
4.12677282739e-07
5.23450214706e-05
2.67450818332e-07
5.23022838281e-05
1.6904216296e-07
5.22746967889e-05
1.03476754478e-07
5.22573723064e-05
6.06305263819e-08
5.22468636072e-05
3.32679978223e-08
5.22407637955e-05
1.62911120079e-08
5.22374547028e-05
6.18329701297e-09
5.22359556933e-05
5.16007545557e-10
5.22354472904e-05
-2.42300478125e-09
5.2235511686e-05
-3.68570702271e-09
5.22358565052e-05
-3.98247889149e-09
5.22363100361e-05
-3.76252208198e-09
5.22367756465e-05
-3.30028930918e-09
5.22372022418e-05
-2.75642659241e-09
5.22375671046e-05
-2.22100946504e-09
5.22378635397e-05
-1.73881876212e-09
5.22380943524e-05
-1.32792665272e-09
5.22382698272e-05
-9.91233760492e-10
5.22384018917e-05
-7.24101437097e-10
5.22385014699e-05
-5.13967730253e-10
5.22385853369e-05
-3.53172927199e-10
5.22386501573e-05
-2.34886000262e-10
5.2238691804e-05
-1.50708503601e-10
5.2238723943e-05
-9.26133804011e-11
5.22387387766e-05
-3.77935902005e-11
5.22387434529e-05
-4.55714026034e-13
5.2238740539e-05
2.75813251669e-11
5.22387320028e-05
4.86381204745e-11
5.22387191372e-05
6.5134182922e-11
5.22387028273e-05
7.89796680843e-11
5.22386836646e-05
9.1346776483e-11
5.22386621539e-05
1.02837555482e-10
5.22386389716e-05
1.13613278863e-10
5.22386152831e-05
1.23306300047e-10
5.22385889706e-05
1.35368854127e-10
5.22385617935e-05
1.45484645247e-10
5.22385348603e-05
1.53710992597e-10
5.22385097356e-05
1.58573511626e-10
5.22384890131e-05
1.5739554143e-10
5.22384782515e-05
1.44634619091e-10
5.22384864509e-05
1.12823842937e-10
5.22385170152e-05
5.97295641495e-11
5.22385932523e-05
-4.60399541959e-11
5.22387128397e-05
-1.96483770928e-10
5.22389075887e-05
-4.42363832721e-10
5.22392451258e-05
-8.55245434061e-10
5.22397632363e-05
-1.57599451821e-09
5.22405368288e-05
-2.58825301117e-09
5.22416986444e-05
-4.12114356539e-09
5.22434520233e-05
-6.46750548407e-09
5.22460982587e-05
-1.00760337507e-08
5.22500892744e-05
-1.56524203687e-08
5.22561162161e-05
-2.43107582568e-08
5.2265237862e-05
-3.7826878967e-08
5.22790714611e-05
-5.90605343831e-08
5.23000745366e-05
-9.26586796514e-08
5.23319622058e-05
-1.46245764813e-07
5.2380076783e-05
-2.32479703396e-07
5.2451342353e-05
-3.72585479509e-07
5.25526191872e-05
-6.02027259388e-07
5.26844476226e-05
-9.78693329473e-07
5.2824597328e-05
-1.59007488128e-06
5.28915831932e-05
-2.55000317276e-06
5.26729616731e-05
-3.9725037505e-06
-5.76711921086e-06
5.18640582622e-05
5.19834868061e-05
4.18998809947e-06
5.50586649545e-05
9.80990049989e-06
5.76386147688e-05
1.21156454105e-05
5.93259052824e-05
1.20656818526e-05
6.02280178764e-05
1.07325700727e-05
6.05929295995e-05
8.9001542218e-06
6.06482870275e-05
7.03829068192e-06
6.05531930344e-05
5.37797037635e-06
6.04029588733e-05
4.00222029157e-06
6.02479187223e-05
2.9149690953e-06
6.01107934869e-05
2.08393505763e-06
5.99990341949e-05
1.46463861971e-06
5.99125191881e-05
1.01253679504e-06
5.98479274019e-05
6.88319222099e-07
5.98010238763e-05
4.5958083226e-07
5.97677392074e-05
3.00735455995e-07
5.97445977762e-05
1.92183510604e-07
5.97288190957e-05
1.19255298253e-07
5.97182707587e-05
7.11786807909e-08
5.97113643284e-05
4.01742001997e-08
5.97069446899e-05
2.07104730968e-08
5.97042104564e-05
8.91720523426e-09
5.97026010386e-05
2.12505352242e-09
5.97016960748e-05
-1.51845902938e-09
5.97012373011e-05
-3.22739822779e-09
5.9701047257e-05
-3.79294215337e-09
5.97010104111e-05
-3.72622339089e-09
5.97010541031e-05
-3.34457081593e-09
5.97011346162e-05
-2.8375650178e-09
5.97012262833e-05
-2.31333481109e-09
5.97013152273e-05
-1.82845607025e-09
5.97013948473e-05
-1.40825577958e-09
5.97014637259e-05
-1.06082470113e-09
5.97015224685e-05
-7.83558920451e-10
5.97015719113e-05
-5.64094968499e-10
5.97016109501e-05
-3.92863948999e-10
5.97016380213e-05
-2.62578572482e-10
5.97016526592e-05
-1.65925101888e-10
5.97016504268e-05
-9.09487367657e-11
5.97016418371e-05
-2.97597421542e-11
5.9701634724e-05
6.09630027178e-12
5.97016249808e-05
3.67498258182e-11
5.97016140904e-05
5.89375768441e-11
5.9701601986e-05
7.66085212822e-11
5.9701587662e-05
9.2679591736e-11
5.97015709706e-05
1.0742205427e-10
5.97015520173e-05
1.21211262367e-10
5.9701530831e-05
1.34249769741e-10
5.97015072063e-05
1.46456148114e-10
5.97014845653e-05
1.57599839769e-10
5.97014627794e-05
1.66891497388e-10
5.97014430829e-05
1.73030646228e-10
5.97014271037e-05
1.74125762935e-10
5.97014162952e-05
1.67680858659e-10
5.9701409649e-05
1.50662203409e-10
5.97014003018e-05
1.21757711945e-10
5.97014046426e-05
5.43755939737e-11
5.97014159498e-05
-5.81717842189e-11
5.97014999145e-05
-2.81539983922e-10
5.97016886363e-05
-6.32021197648e-10
5.97019882486e-05
-1.15567418705e-09
5.97023751267e-05
-1.96369448795e-09
5.97029536881e-05
-3.16761121442e-09
5.97038063526e-05
-4.97461239388e-09
5.97050470957e-05
-7.70909336076e-09
5.9706840944e-05
-1.18707667455e-08
5.97094259195e-05
-1.82383301422e-08
5.97131459452e-05
-2.80317748907e-08
5.97184905861e-05
-4.31725654335e-08
5.97261403405e-05
-6.67113756776e-08
5.97369962961e-05
-1.03515749401e-07
5.97521203484e-05
-1.61370924455e-07
5.97723491122e-05
-2.52709532219e-07
5.97970895775e-05
-3.97326931096e-07
5.98211835798e-05
-6.26122148062e-07
5.98277551305e-05
-9.85265742457e-07
5.97747654462e-05
-1.53708632335e-06
5.95743031249e-05
-2.3495419734e-06
5.90685717026e-05
-3.46677153118e-06
-4.79595503261e-06
5.80974057163e-05
5.1437305705e-05
2.75268274949e-06
5.42658215642e-05
6.98138531525e-06
5.72496448038e-05
9.13182277674e-06
5.9790029709e-05
9.52529753633e-06
6.17201307343e-05
8.80246962151e-06
6.30883061902e-05
7.53197931589e-06
6.40167202275e-05
6.10987715851e-06
6.46292404639e-05
4.76545060636e-06
6.50258078141e-05
3.60565335204e-06
6.52790827284e-05
2.66169452787e-06
6.54389780588e-05
1.92404000647e-06
6.55386951132e-05
1.36492177617e-06
6.55999338209e-05
9.51298232735e-07
6.56367487556e-05
6.51504370423e-07
6.56581999231e-05
4.3812968541e-07
6.56701081648e-05
2.8882717783e-07
6.56761973762e-05
1.86094210974e-07
6.56788336074e-05
1.16618923373e-07
6.56795039238e-05
7.05081687333e-08
6.56791275512e-05
4.055032791e-08
6.56782599407e-05
2.15777872195e-08
6.56772287621e-05
9.9480380014e-09
6.56762192037e-05
3.13421865082e-09
6.56753095739e-05
-6.09267474667e-10
6.56745404882e-05
-2.45878901625e-09
6.56739117011e-05
-3.16467307722e-09
6.56734123401e-05
-3.22741654927e-09
6.5673024937e-05
-2.95775911019e-09
6.56727305077e-05
-2.54375897359e-09
6.56725108869e-05
-2.09436854893e-09
6.56723499641e-05
-1.66821317483e-09
6.5672234074e-05
-1.293064901e-09
6.56721510955e-05
-9.78544354371e-10
6.56720904148e-05
-7.2357392912e-10
6.56720462794e-05
-5.20636600305e-10
6.56720144723e-05
-3.6170049341e-10
6.56719888634e-05
-2.37591311473e-10
6.56719667827e-05
-1.44433552466e-10
6.56719513177e-05
-7.60447121641e-11
6.56719490928e-05
-2.80765320382e-11
6.5671947078e-05
7.56971445462e-12
6.56719392683e-05
4.40374827487e-11
6.56719287049e-05
6.89521585082e-11
6.56719157297e-05
8.90290332452e-11
6.56719011912e-05
1.0663070516e-10
6.56718851295e-05
1.22873046526e-10
6.56718674286e-05
1.3832066237e-10
6.56718480311e-05
1.53072762667e-10
6.56718274408e-05
1.66507400978e-10
6.56718077379e-05
1.76779616599e-10
6.56717878501e-05
1.86269380413e-10
6.56717682807e-05
1.92087109348e-10
6.56717501201e-05
1.91710297052e-10
6.5671735222e-05
1.81843684464e-10
6.56717274305e-05
1.57785762118e-10
6.56717340569e-05
1.13814265347e-10
6.56717395853e-05
4.80567614598e-11
6.56717726477e-05
-9.21525468598e-11
6.56718397046e-05
-3.49790223285e-10
6.56719375576e-05
-7.30948563461e-10
6.56720876677e-05
-1.30669231406e-09
6.56722969454e-05
-2.17381758372e-09
6.56725819659e-05
-3.45346310572e-09
6.56729593404e-05
-5.35281493662e-09
6.56734400563e-05
-8.19066217367e-09
6.56740218324e-05
-1.24534281943e-08
6.56746746292e-05
-1.88920600045e-08
6.56753129984e-05
-2.86711345721e-08
6.56757361897e-05
-4.35968003079e-08
6.56755169587e-05
-6.64932212778e-08
6.56737866215e-05
-1.01786503582e-07
6.56688121863e-05
-1.56397571602e-07
6.56570607314e-05
-2.40959127303e-07
6.56314060512e-05
-3.71673249687e-07
6.55777017739e-05
-5.72418770333e-07
6.54687241106e-05
-8.76288829108e-07
6.52553233301e-05
-1.32368641845e-06
6.48574862687e-05
-1.95170617329e-06
6.41628036154e-05
-2.772088766e-06
-3.71431752086e-06
6.30811650165e-05
5.10850426961e-05
1.66764042921e-06
5.36118455641e-05
4.45458315419e-06
5.6687318072e-05
6.05635089913e-06
5.96894486473e-05
6.52316756861e-06
6.22997298032e-05
6.19218905109e-06
6.44136918887e-05
5.41801778385e-06
6.60471885256e-05
4.47638103323e-06
6.72686205345e-05
3.54401905878e-06
6.81598999985e-05
2.71437428931e-06
6.879776699e-05
2.02382787365e-06
6.92467517248e-05
1.4750555423e-06
6.95579708823e-05
1.05370282308e-06
6.97704378503e-05
7.38831406732e-07
6.991318118e-05
5.08761123204e-07
7.00073925363e-05
3.43918352851e-07
7.00683023317e-05
2.27917348095e-07
7.01067045722e-05
1.47691881009e-07
7.01301470512e-05
9.3176297418e-08
7.01438363043e-05
5.68187110252e-08
7.01513124807e-05
3.30738923474e-08
7.01549449753e-05
1.79449798006e-08
7.01562927151e-05
8.59993460765e-09
7.01563645017e-05
3.06202015341e-09
7.01557723298e-05
-1.75470124707e-11
7.01549112581e-05
-1.59820930223e-09
7.01539874166e-05
-2.24135298145e-09
7.01531185106e-05
-2.35906316326e-09
7.01523581968e-05
-2.19802917942e-09
7.01517236809e-05
-1.9098548868e-09
7.01512121097e-05
-1.58343504251e-09
7.01508105516e-05
-1.26731860652e-09
7.01505020628e-05
-9.85256621066e-10
7.01502690172e-05
-7.46187644907e-10
7.01500952557e-05
-5.5050417238e-10
7.0149967798e-05
-3.93862132739e-10
7.01498760143e-05
-2.70568702086e-10
7.01498128058e-05
-1.74998055075e-10
7.01497707207e-05
-1.02928058609e-10
7.01497417164e-05
-4.75848980665e-11
7.0149711313e-05
1.81636439921e-12
7.01496875035e-05
3.08766979833e-11
7.01496740442e-05
5.69683522494e-11
7.01496631021e-05
7.93590986967e-11
7.01496527593e-05
9.88094832024e-11
7.01496422586e-05
1.1654377855e-10
7.01496312352e-05
1.33298473799e-10
7.01496195569e-05
1.49386860103e-10
7.01496072812e-05
1.6474574384e-10
7.01495942294e-05
1.78958825852e-10
7.01495790224e-05
1.9140201853e-10
7.01495635972e-05
2.01132939294e-10
7.01495487789e-05
2.0635201015e-10
7.01495352731e-05
2.0460286853e-10
7.01495235535e-05
1.92789657089e-10
7.01495132809e-05
1.67337798589e-10
7.01495019494e-05
1.2450406277e-10
7.01494937413e-05
5.49382857543e-11
7.01494823405e-05
-8.15854573568e-11
7.01494925201e-05
-3.60845724165e-10
7.01495146245e-05
-7.54071774675e-10
7.01495369804e-05
-1.3300166751e-09
7.01495381158e-05
-2.17581259737e-09
7.01494911475e-05
-3.40733595586e-09
7.01493428134e-05
-5.20533004389e-09
7.01489941942e-05
-7.84290419866e-09
7.01482701525e-05
-1.17302717658e-08
7.01468691548e-05
-1.74919870174e-08
7.01442797848e-05
-2.60827380384e-08
7.01396280321e-05
-3.89460706389e-08
7.013143311e-05
-5.8299360067e-08
7.01172063931e-05
-8.75608639357e-08
7.00927946651e-05
-1.31986909784e-07
7.00511106614e-05
-1.99276155308e-07
6.9980185084e-05
-3.00748676358e-07
6.9860060157e-05
-4.52294781807e-07
6.96583052926e-05
-6.7453474353e-07
6.93250304536e-05
-9.9041230237e-07
6.87907239722e-05
-1.41740082541e-06
6.79728570097e-05
-1.95422215133e-06
-2.5548853775e-06
6.68134240881e-05
5.08804135336e-05
7.87227289933e-07
5.31704672058e-05
2.16453021413e-06
5.62177513577e-05
3.0090673965e-06
5.94382719255e-05
3.30264762069e-06
6.24449722828e-05
3.18548928397e-06
6.5038256205e-05
2.82473441563e-06
6.7154870242e-05
2.35976750138e-06
6.88135691606e-05
1.88532059056e-06
7.00731755378e-05
1.45476830303e-06
7.10056728265e-05
1.09133091417e-06
7.16812693926e-05
7.99459242555e-07
7.21614289721e-05
5.73543447776e-07
7.24966100734e-05
4.03650450371e-07
7.27264867518e-05
2.78884532463e-07
7.28812857238e-05
1.89119411432e-07
7.29834755002e-05
1.25727543274e-07
7.30494192518e-05
8.17480421443e-08
7.30908212748e-05
5.17741267062e-08
7.3115915078e-05
3.17246971246e-08
7.31303993982e-05
1.85893008962e-08
7.31381538637e-05
1.01901859048e-08
7.31417739965e-05
4.97942051853e-09
7.31429613588e-05
1.87423395812e-09
7.31428145657e-05
1.28779881466e-10
7.31419909201e-05
-7.75059801355e-10
7.3140907563e-05
-1.15852021942e-09
7.31397922176e-05
-1.24426314274e-09
7.31387642885e-05
-1.17067077015e-09
7.31378762231e-05
-1.02238953079e-09
7.31371419362e-05
-8.49769542184e-10
7.31365540432e-05
-6.80081494874e-10
7.31360951615e-05
-5.27055625646e-10
7.31357444358e-05
-3.96150637941e-10
7.31354812443e-05
-2.88002399126e-10
7.3135287258e-05
-2.00554746675e-10
7.31351468667e-05
-1.30827368042e-10
7.31350468281e-05
-7.55708785368e-11
7.31349746343e-05
-3.13053526126e-11
7.31349209167e-05
5.6228338012e-12
7.31348906255e-05
3.15918564458e-11
7.31348670288e-05
5.39974355409e-11
7.3134849729e-05
7.37784397944e-11
7.31348368644e-05
9.17290146502e-11
7.31348266272e-05
1.08529355575e-10
7.31348177479e-05
1.24881263185e-10
7.31348093475e-05
1.41130949627e-10
7.31348008173e-05
1.573196708e-10
7.31347917587e-05
1.73210553283e-10
7.3134781904e-05
1.8822823339e-10
7.31347712272e-05
2.01506619863e-10
7.31347597993e-05
2.12012035954e-10
7.31347476928e-05
2.17930246901e-10
7.31347350267e-05
2.16748560914e-10
7.31347220137e-05
2.05241575579e-10
7.31347091246e-05
1.79433878965e-10
7.31346979154e-05
1.34844826305e-10
7.31346812295e-05
7.14720713348e-11
7.31346575096e-05
-5.89017774218e-11
7.31346154552e-05
-3.19380456312e-10
7.3134548715e-05
-6.88248598269e-10
7.31344338338e-05
-1.21611911963e-09
7.31342276124e-05
-1.97051309132e-09
7.31338620054e-05
-3.04259537639e-09
7.31332220369e-05
-4.56623753671e-09
7.31321147529e-05
-6.73649719619e-09
7.31302183624e-05
-9.83477520832e-09
7.31270055055e-05
-1.42800558471e-08
7.31216211594e-05
-2.06993545113e-08
7.31126526576e-05
-2.99785706338e-08
7.30977955272e-05
-4.34432751765e-08
7.3073342854e-05
-6.31092578728e-08
7.30333978937e-05
-9.20430090487e-08
7.29684478386e-05
-1.34327132482e-07
7.28634766321e-05
-1.95778472474e-07
7.26953204034e-05
-2.84139514231e-07
7.24294825842e-05
-4.08697769225e-07
7.20176072831e-05
-5.78537709732e-07
7.13985047826e-05
-7.98299310295e-07
7.0506634748e-05
-1.06235269935e-06
-1.34563346158e-06
6.92973821667e-05
5.07871729479e-05
5.47510842826e-11
5.29516508998e-05
5.30099657845e-11
5.59606901137e-05
2.88428623814e-11
5.92633241269e-05
1.42325788861e-11
6.24488112058e-05
2.79624003934e-12
6.52735521882e-05
-6.0221228573e-12
6.76333321059e-05
-1.19200966454e-11
6.95186680065e-05
-1.48710908675e-11
7.09734520125e-05
-1.53225396773e-11
7.2064797118e-05
-1.38696186928e-11
7.28642677637e-05
-1.11397016925e-11
7.34378191989e-05
-7.78113123814e-12
7.38414742479e-05
-4.44727646546e-12
7.41203606553e-05
-1.77820314658e-12
7.43094804645e-05
-3.58707447246e-13
7.44352085796e-05
-5.91150613165e-13
7.45169592644e-05
-2.7253778652e-12
7.45687397678e-05
-6.52441495775e-12
7.46004756041e-05
-1.13548034361e-11
7.46190808644e-05
-1.6240161734e-11
7.46292907652e-05
-2.00568541659e-11
7.4634291505e-05
-2.17143111917e-11
7.46361860451e-05
-2.07495466301e-11
7.4636332786e-05
-1.84358329288e-11
7.46355731678e-05
-1.59417384927e-11
7.46344269563e-05
-1.28305405758e-11
7.46331914189e-05
-9.26804103179e-12
7.463202551e-05
-5.32246984901e-12
7.46310030146e-05
-4.82954773714e-13
7.46301490132e-05
3.61065395801e-12
7.46294600046e-05
8.28631616651e-12
7.462891899e-05
1.3290003655e-11
7.46285035821e-05
1.85734610728e-11
7.46281907018e-05
2.41901928034e-11
7.46279591522e-05
3.03148604691e-11
7.46277906025e-05
3.70651499476e-11
7.46276698955e-05
4.45146639089e-11
7.462758538e-05
5.26501118012e-11
7.46275289685e-05
6.14902310456e-11
7.46274893992e-05
7.06828046939e-11
7.46274627373e-05
8.02011661325e-11
7.4627445106e-05
9.09519966381e-11
7.4627433512e-05
1.0285532591e-10
7.46274257119e-05
1.1583879557e-10
7.46274201695e-05
1.29908761278e-10
7.46274158192e-05
1.44945189148e-10
7.46274119075e-05
1.60669683693e-10
7.46274079182e-05
1.76630586685e-10
7.46274034338e-05
1.92143150742e-10
7.4627398114e-05
2.06266454693e-10
7.46273917937e-05
2.17791503571e-10
7.46273842574e-05
2.24932633476e-10
7.46273751396e-05
2.25345478671e-10
7.46273637105e-05
2.16099248773e-10
7.4627348653e-05
1.93724388435e-10
7.46273285785e-05
1.54335499118e-10
7.46273023721e-05
9.68329878677e-11
7.46272564809e-05
-1.39094984555e-11
7.46271680537e-05
-2.31549256059e-10
7.46270317477e-05
-5.52789750142e-10
7.4626808314e-05
-9.93630669767e-10
7.46264371117e-05
-1.60023888794e-09
7.46258218184e-05
-2.42820349917e-09
7.46248057053e-05
-3.55102034546e-09
7.46231337813e-05
-5.06546561187e-09
7.46203894194e-05
-7.09131621857e-09
7.46159061454e-05
-9.79771549426e-09
7.46086263776e-05
-1.34205563155e-08
7.45968137152e-05
-1.81669189841e-08
7.45776679317e-05
-2.42985322425e-08
7.4546772445e-05
-3.22148314456e-08
7.44974002905e-05
-4.26719058764e-08
7.44188168109e-05
-5.57446748476e-08
7.42946287929e-05
-7.15914437748e-08
7.41004645362e-05
-8.99762263331e-08
7.3801517151e-05
-1.0975128254e-07
7.33511389182e-05
-1.28160226867e-07
7.26928742275e-05
-1.40035513984e-07
7.17687131879e-05
-1.38192347137e-07
-1.14141095185e-07
7.05372201859e-05
5.0787171921e-05
-7.87116750891e-07