/*--------------------------------*- C++ -*----------------------------------*\
| =========                 |                                                 |
| \\      /  F ield         | OpenFOAM: The Open Source CFD Toolbox           |
|  \\    /   O peration     | Version:  2106                                  |
|   \\  /    A nd           | Website:  www.openfoam.com                      |
|    \\/     M anipulation  |                                                 |
\*---------------------------------------------------------------------------*/
FoamFile
{
    version     2.0;
    format      ascii;
    arch        "LSB;label=32;scalar=64";
    class       volVectorField;
    location    "0.395";
    object      U;
}
// * * * * * * * * * * * * * * * * * * * * * * * * * * * * * * * * * * * * * //

dimensions      [0 1 -1 0 0 0 0];

internalField   nonuniform List<vector> 
11200
(
(0.662462407768 0.150569440853 0)
(0.558948690608 0.103243387537 0)
(0.383850771803 0.051351223946 0)
(0.283747645108 0.0248708551409 0)
(0.232075333454 0.0124170450728 0)
(0.201908661837 0.006622816509 0)
(0.183198018189 0.00380291376996 0)
(0.171276582607 0.00231586899935 0)
(0.163510408188 0.00146450512975 0)
(0.158388879015 0.000944890740228 0)
(0.155006747764 0.000615175100878 0)
(0.152786800214 0.000402232063643 0)
(0.151346657533 0.000264230630089 0)
(0.150428427701 0.000175248802806 0)
(0.149856830044 0.000118359663971 0)
(0.149512634515 8.21593650594e-05 0)
(0.1493150788 5.88656665756e-05 0)
(0.149209720756 4.33158147951e-05 0)
(0.149159864478 3.29348334847e-05 0)
(0.149142626428 2.81861356562e-05 0)
(0.149144782656 2.7684054626e-05 0)
(0.149157058048 2.98896377438e-05 0)
(0.149172679145 3.30500288298e-05 0)
(0.149188226223 3.5965809002e-05 0)
(0.149202434761 3.86017485848e-05 0)
(0.149214704562 4.10412426056e-05 0)
(0.149224867765 4.33186283163e-05 0)
(0.149233031142 4.54652406663e-05 0)
(0.149239431059 4.75207103505e-05 0)
(0.149244349018 4.95316813123e-05 0)
(0.149248069789 5.15602612244e-05 0)
(0.149250861563 5.36972212032e-05 0)
(0.149252921634 5.60258084435e-05 0)
(0.14925441999 5.84071640608e-05 0)
(0.149255488701 6.07677785985e-05 0)
(0.149256213686 6.30884374185e-05 0)
(0.149256692476 6.53799166612e-05 0)
(0.149257008633 6.76544425931e-05 0)
(0.149257215532 6.99240261755e-05 0)
(0.149257342474 7.21947721302e-05 0)
(0.14925741078 7.44677232879e-05 0)
(0.149257438197 7.67433058337e-05 0)
(0.149257437485 7.90220930591e-05 0)
(0.149257418642 8.13019071027e-05 0)
(0.149257388495 8.35817663813e-05 0)
(0.149257351426 8.58592072175e-05 0)
(0.149257311413 8.81311039215e-05 0)
(0.149257271214 9.03947418855e-05 0)
(0.149257234657 9.26473365094e-05 0)
(0.149257207696 9.48855920977e-05 0)
(0.149257195997 9.71059113484e-05 0)
(0.149257208122 9.93056661151e-05 0)
(0.14925725774 0.000101482034413 0)
(0.149257363147 0.000103631739476 0)
(0.149257549893 0.000105750323796 0)
(0.149257854814 0.000107831753637 0)
(0.149258329635 0.000109868512921 0)
(0.149259049703 0.000111851002448 0)
(0.14926012455 0.000113767098513 0)
(0.14926171371 0.000115592046792 0)
(0.149264067728 0.000117268660754 0)
(0.149267594823 0.000118714862731 0)
(0.149272761539 0.000119971168229 0)
(0.149280216617 0.000121232005134 0)
(0.149290993981 0.000122962291574 0)
(0.149306615693 0.000125337107658 0)
(0.149329467807 0.000128116817169 0)
(0.149363243522 0.000131077085241 0)
(0.149413537082 0.000134002843123 0)
(0.149488577774 0.000136780057003 0)
(0.149600299164 0.000140688852855 0)
(0.149771542765 0.000151555731606 0)
(0.150040070966 0.000172276795216 0)
(0.150469029122 0.000202519812746 0)
(0.151194209441 0.000232437946117 0)
(0.152493233447 0.00019163644384 0)
(0.15502220095 -0.000216760056149 0)
(0.162375294468 -0.00210991430873 0)
(0.18770245911 -0.0107876556619 0)
(0.204355527356 -0.0496552143985 0)
(0.965408259071 0.289214705562 0)
(0.961962875809 0.252656040176 0)
(0.823574420647 0.159021442383 0)
(0.698139407487 0.095995731684 0)
(0.61022551003 0.0582481138807 0)
(0.548971543087 0.0362148519232 0)
(0.506588943247 0.0231612827923 0)
(0.477567324832 0.0151375118968 0)
(0.457745548341 0.0100177509378 0)
(0.444228518005 0.00665813650737 0)
(0.435053356965 0.00441555152975 0)
(0.428873178158 0.00290686139377 0)
(0.424754263795 0.0018910544623 0)
(0.422046715806 0.00121004200466 0)
(0.420297880315 0.000757160789811 0)
(0.419193272248 0.000459253928537 0)
(0.418515667399 0.000265853420133 0)
(0.418116520123 0.000142398741832 0)
(0.417895915843 6.61088712118e-05 0)
(0.417786864247 2.30912858999e-05 0)
(0.417745449363 1.40623851571e-06 0)
(0.417742172495 -1.01645935156e-05 0)
(0.417756772174 -1.37161102355e-05 0)
(0.417778734023 -1.32695062449e-05 0)
(0.417803032322 -1.0836991168e-05 0)
(0.417826407159 -7.49369677998e-06 0)
(0.417847165386 -3.87742044811e-06 0)
(0.417864708814 -3.57928526961e-07 0)
(0.41787904064 2.86348701544e-06 0)
(0.417890475817 5.68256670129e-06 0)
(0.417899486185 8.03542689719e-06 0)
(0.4179065661 9.83823336339e-06 0)
(0.417911917719 1.1007448804e-05 0)
(0.417915773875 1.1860078942e-05 0)
(0.4179185122 1.26822848185e-05 0)
(0.417920407539 1.34387819047e-05 0)
(0.417921701663 1.41123271935e-05 0)
(0.417922585929 1.47272937511e-05 0)
(0.417923186951 1.53126619024e-05 0)
(0.417923576274 1.58816898816e-05 0)
(0.417923806733 1.64350362998e-05 0)
(0.417923922973 1.69771593657e-05 0)
(0.417923955813 1.75128288504e-05 0)
(0.417923928675 1.80447979691e-05 0)
(0.417923858981 1.85765171514e-05 0)
(0.417923757863 1.91104511556e-05 0)
(0.417923636442 1.96474150611e-05 0)
(0.417923504604 2.0189751555e-05 0)
(0.417923372999 2.07403320853e-05 0)
(0.417923255383 2.13008976818e-05 0)
(0.417923169129 2.18704478327e-05 0)
(0.417923138583 2.24495591146e-05 0)
(0.417923197617 2.30383417088e-05 0)
(0.417923392292 2.36364178411e-05 0)
(0.417923787201 2.42435142009e-05 0)
(0.417924475433 2.48588791543e-05 0)
(0.417925590163 2.54785985427e-05 0)
(0.417927326787 2.60910822676e-05 0)
(0.41792996358 2.66798983636e-05 0)
(0.417933890103 2.72147142258e-05 0)
(0.417939715187 2.76446050454e-05 0)
(0.417948538744 2.79220858739e-05 0)
(0.417961845577 2.82080263269e-05 0)
(0.417981777493 2.7744549545e-05 0)
(0.418011094149 2.51227621621e-05 0)
(0.418053404117 1.92831409736e-05 0)
(0.418114904909 9.41878337894e-06 0)
(0.418205713015 -6.00478751008e-06 0)
(0.418341427864 -2.95108938864e-05 0)
(0.418546942436 -6.47809683037e-05 0)
(0.418864146655 -0.000116003488311 0)
(0.419362626052 -0.000188144868722 0)
(0.420155832788 -0.000307918667798 0)
(0.421447398666 -0.000532877648093 0)
(0.423628913422 -0.000999823273921 0)
(0.427418961714 -0.00209040553158 0)
(0.434239482643 -0.00485605330634 0)
(0.448265008641 -0.0122529917534 0)
(0.474641813851 -0.0342389609548 0)
(0.478159336623 -0.0987617679631 0)
(1.02222097027 0.238416189371 0)
(1.08213754619 0.295926655649 0)
(1.03447725513 0.239503069188 0)
(0.954615447447 0.174290166005 0)
(0.87999210134 0.1213454681 0)
(0.818614486685 0.0830993816637 0)
(0.771410905378 0.0567316627529 0)
(0.736634448363 0.0387409625452 0)
(0.711624493094 0.0264327799635 0)
(0.693916684584 0.0179730971466 0)
(0.681541478865 0.0121424404731 0)
(0.67300019099 0.00812490128293 0)
(0.667180730712 0.00536631504536 0)
(0.66327176535 0.00348443985207 0)
(0.660688598007 0.00221255773972 0)
(0.659014276461 0.00136337903474 0)
(0.657954597113 0.000805241825435 0)
(0.657304304652 0.000445915211724 0)
(0.656921885722 0.000221067438031 0)
(0.656710319483 8.55802933227e-05 0)
(0.65660345461 8.35693669964e-06 0)
(0.656561905503 -3.37205253998e-05 0)
(0.656558005488 -5.68548731062e-05 0)
(0.656571482379 -6.68738663707e-05 0)
(0.656593013701 -6.84814420521e-05 0)
(0.656616835294 -6.55603136695e-05 0)
(0.656639640066 -6.05493470159e-05 0)
(0.656659821451 -5.48594721926e-05 0)
(0.656676793661 -4.927562385e-05 0)
(0.656690534663 -4.42039568781e-05 0)
(0.656701291581 -3.98392939419e-05 0)
(0.656709447889 -3.62992038321e-05 0)
(0.656715699519 -3.36915813894e-05 0)
(0.656720737804 -3.18515256799e-05 0)
(0.656724604505 -3.08051521605e-05 0)
(0.656727313606 -3.02983489934e-05 0)
(0.656729178167 -3.02447213339e-05 0)
(0.656730477527 -3.05566461295e-05 0)
(0.656731378366 -3.10850701032e-05 0)
(0.656731971299 -3.17479780951e-05 0)
(0.65673233102 -3.25154729026e-05 0)
(0.656732524029 -3.33522913274e-05 0)
(0.656732596054 -3.42342555513e-05 0)
(0.656732581394 -3.51410382376e-05 0)
(0.656732505519 -3.60583479434e-05 0)
(0.656732385816 -3.69750401433e-05 0)
(0.656732238906 -3.78836617494e-05 0)
(0.656732081308 -3.8779666842e-05 0)
(0.656731929305 -3.96576664179e-05 0)
(0.656731800568 -4.05121764861e-05 0)
(0.656731719027 -4.13402855426e-05 0)
(0.656731720172 -4.21379330293e-05 0)
(0.656731852786 -4.29035669582e-05 0)
(0.656732185346 -4.36411637164e-05 0)
(0.656732814874 -4.43639286567e-05 0)
(0.656733877545 -4.5101409251e-05 0)
(0.656735563281 -4.59105451295e-05 0)
(0.656738152926 -4.68873707532e-05 0)
(0.65674205661 -4.81559908519e-05 0)
(0.656747871766 -4.99376712023e-05 0)
(0.656756538171 -5.27469817074e-05 0)
(0.656769707238 -5.75717604449e-05 0)
(0.656788681575 -6.52280616996e-05 0)
(0.656814907583 -7.65745862709e-05 0)
(0.656852249014 -9.33091784506e-05 0)
(0.65690741594 -0.00011782403337 0)
(0.656989779717 -0.000153322567454 0)
(0.657113131273 -0.000205093816904 0)
(0.657299288248 -0.000281657498675 0)
(0.657583643575 -0.000396887039869 0)
(0.658024322288 -0.000575128992997 0)
(0.658710509362 -0.00086364231102 0)
(0.659789243049 -0.00135248588281 0)
(0.661518029965 -0.00221475022131 0)
(0.66433896503 -0.00381292202427 0)
(0.668947678984 -0.0069456848952 0)
(0.676369837729 -0.0133514418224 0)
(0.688612913502 -0.0268407566678 0)
(0.705235341849 -0.0563132541561 0)
(0.700484076531 -0.113069924589 0)
(1.02251475933 0.170807157009 0)
(1.10138977324 0.276496483581 0)
(1.1175242888 0.266664803517 0)
(1.09214664212 0.219901701401 0)
(1.05187819931 0.168168847549 0)
(1.01020827211 0.123567393812 0)
(0.973494740998 0.088837516077 0)
(0.943864607596 0.0630063640095 0)
(0.921142852288 0.0442231952672 0)
(0.90428412687 0.0307423834103 0)
(0.8920749252 0.0211562850359 0)
(0.88340457012 0.0143954602764 0)
(0.877352733743 0.00966794123085 0)
(0.873197774575 0.00639383169889 0)
(0.870393001055 0.00415116078824 0)
(0.868534114594 0.00263448815376 0)
(0.867327718892 0.00162401563919 0)
(0.866564315872 0.000962674962304 0)
(0.866096557866 0.000539121848746 0)
(0.865822314746 0.000275153414624 0)
(0.86567147037 0.000117068569189 0)
(0.865595219868 2.87930384272e-05 0)
(0.865564162948 -1.93235099467e-05 0)
(0.865561356981 -4.12593146914e-05 0)
(0.865572703731 -4.76633132482e-05 0)
(0.865589713582 -4.55226713249e-05 0)
(0.865608027281 -3.91527346631e-05 0)
(0.865625370605 -3.11414908341e-05 0)
(0.865640660012 -2.29600808403e-05 0)
(0.865653528569 -1.53757370571e-05 0)
(0.865664008221 -8.717114827e-06 0)
(0.865672301878 -3.03767193008e-06 0)
(0.865678661859 1.74183329829e-06 0)
(0.86568329506 5.4734207617e-06 0)
(0.86568661968 8.03922350695e-06 0)
(0.865689022277 9.7945898106e-06 0)
(0.865690657699 1.11473781657e-05 0)
(0.865691823327 1.22900407506e-05 0)
(0.865692693111 1.32584311744e-05 0)
(0.86569328633 1.41435563537e-05 0)
(0.865693652032 1.49375122415e-05 0)
(0.865693855324 1.56630971978e-05 0)
(0.865693935865 1.63364517274e-05 0)
(0.865693925309 1.6973932443e-05 0)
(0.865693846141 1.75888122902e-05 0)
(0.865693714668 1.81921474062e-05 0)
(0.865693545616 1.87918957874e-05 0)
(0.865693355927 1.93927270788e-05 0)
(0.865693166225 2.00020563086e-05 0)
(0.865692998786 2.06293070202e-05 0)
(0.865692883435 2.1261184468e-05 0)
(0.865692861611 2.18839298705e-05 0)
(0.865692986188 2.24807306251e-05 0)
(0.865693327291 2.30249561496e-05 0)
(0.865693980219 2.3480986094e-05 0)
(0.865695076062 2.38165993231e-05 0)
(0.86569679944 2.39866357925e-05 0)
(0.865699446245 2.3873288883e-05 0)
(0.865703421843 2.33332484099e-05 0)
(0.865709139475 2.19504298763e-05 0)
(0.865717087302 1.91621903994e-05 0)
(0.865728880399 1.42483405637e-05 0)
(0.865747098766 5.38834258122e-06 0)
(0.865774721995 -8.99660457772e-06 0)
(0.865815615769 -3.09075860388e-05 0)
(0.86587570376 -6.43101172342e-05 0)
(0.86596432838 -0.000116079075528 0)
(0.86609600114 -0.000196972154703 0)
(0.866293270674 -0.000324245353622 0)
(0.866590953013 -0.000526367008564 0)
(0.867042643265 -0.000852271777236 0)
(0.867733389683 -0.00138887529775 0)
(0.868799510886 -0.00228490999482 0)
(0.870454203143 -0.00381490172226 0)
(0.873016248884 -0.00650298685752 0)
(0.876884370178 -0.0113583758448 0)
(0.882380798163 -0.020249782944 0)
(0.889688341822 -0.0364472382824 0)
(0.896361515118 -0.0654815079734 0)
(0.886529930027 -0.110023631465 0)
(1.0128787554 0.118961029479 0)
(1.08820672223 0.231806943474 0)
(1.13741369578 0.253106770269 0)
(1.15409089972 0.228992756959 0)
(1.14994214712 0.188368359448 0)
(1.1353846969 0.146579841519 0)
(1.11758899295 0.110150960302 0)
(1.10059504912 0.0808162143835 0)
(1.08612462056 0.0582265671454 0)
(1.07459097658 0.0413189751711 0)
(1.06579152222 0.0289160106986 0)
(1.05928804846 0.019960091431 0)
(1.05459982754 0.0135815530598 0)
(1.0512908334 0.00909743783844 0)
(1.04899991889 0.0059861503568 0)
(1.04744347798 0.00385696442478 0)
(1.04640660569 0.00242159731687 0)
(1.04573069056 0.001470150635 0)
(1.04530113458 0.000851703341799 0)
(1.04503663654 0.000459018480643 0)
(1.04488027334 0.000216759579531 0)
(1.04479265731 7.30210432006e-05 0)
(1.04474879347 -5.50004862689e-06 0)
(1.04473189627 -4.40036801036e-05 0)
(1.04472964865 -5.93803908004e-05 0)
(1.04473513661 -6.17137233284e-05 0)
(1.04474408881 -5.72398929358e-05 0)
(1.04475397712 -4.97975946679e-05 0)
(1.044763422 -4.16378534003e-05 0)
(1.04477175363 -3.39818408713e-05 0)
(1.04477872133 -2.74158539978e-05 0)
(1.04478431246 -2.21439019351e-05 0)
(1.04478867325 -1.81206997801e-05 0)
(1.04479201391 -1.51325839602e-05 0)
(1.04479458918 -1.28014238866e-05 0)
(1.04479669342 -1.10059774489e-05 0)
(1.04479843651 -9.51677916651e-06 0)
(1.04479976443 -8.22784784961e-06 0)
(1.04480074724 -7.2126764205e-06 0)
(1.04480143439 -6.54669865197e-06 0)
(1.04480185054 -6.16886132818e-06 0)
(1.04480208324 -5.96175879472e-06 0)
(1.04480217849 -5.87481514091e-06 0)
(1.04480217387 -5.85661549689e-06 0)
(1.04480209503 -5.86882726067e-06 0)
(1.04480196026 -5.89146626019e-06 0)
(1.0448017858 -5.91517339974e-06 0)
(1.04480159264 -5.9355598037e-06 0)
(1.04480140671 -5.95640959176e-06 0)
(1.0448012356 -5.99092110848e-06 0)
(1.04480109348 -6.0242045617e-06 0)
(1.04480102427 -6.05282325486e-06 0)
(1.04480108275 -6.08253320376e-06 0)
(1.04480134502 -6.12862685242e-06 0)
(1.0448019365 -6.23182547669e-06 0)
(1.04480303313 -6.51186346388e-06 0)
(1.0448048221 -7.22351792528e-06 0)
(1.04480760482 -8.64623068678e-06 0)
(1.04481169109 -1.12740457924e-05 0)
(1.04481755386 -1.51132426076e-05 0)
(1.04482620425 -2.00482785491e-05 0)
(1.0448387971 -2.62948300976e-05 0)
(1.0448566344 -3.61210678443e-05 0)
(1.04488201525 -5.25110626702e-05 0)
(1.04491841014 -7.96811397156e-05 0)
(1.04497097299 -0.00012387392496 0)
(1.04504730836 -0.000194858755983 0)
(1.04515876463 -0.00030821348923 0)
(1.04532248772 -0.000489097604218 0)
(1.04556433872 -0.000778526141539 0)
(1.0459229915 -0.00124380189556 0)
(1.04645628925 -0.00199654026294 0)
(1.04724832528 -0.00322723495585 0)
(1.04841200567 -0.00526658504151 0)
(1.05007457648 -0.00869129130125 0)
(1.05229260893 -0.0144948462563 0)
(1.05482201273 -0.0242838605181 0)
(1.05687314688 -0.0403675914225 0)
(1.05574036936 -0.0655844014984 0)
(1.04212699596 -0.0994362092566 0)
(1.00447483864 0.0814040043775 0)
(1.06917238616 0.181288546225 0)
(1.130805709 0.216950424805 0)
(1.17375003351 0.210789158955 0)
(1.19865268785 0.183690077025 0)
(1.21019992107 0.149751679986 0)
(1.21350260269 0.116779137655 0)
(1.21251728934 0.0882206689936 0)
(1.20973103553 0.0650481404184 0)
(1.20651125277 0.0470208978384 0)
(1.20351919419 0.0334067978656 0)
(1.20101151799 0.0233557230042 0)
(1.19903452233 0.0160720059771 0)
(1.19753885502 0.0108795077558 0)
(1.19644139359 0.00723418404272 0)
(1.19565566678 0.0047135162991 0)
(1.19510497178 0.00299762857002 0)
(1.19472655866 0.00184916179776 0)
(1.19447157695 0.00109496268283 0)
(1.19430326568 0.000610614829533 0)
(1.1941946257 0.000307991081979 0)
(1.19412634114 0.000125773924974 0)
(1.19408529225 2.2229274226e-05 0)
(1.19406203493 -3.24452053476e-05 0)
(1.19404973666 -5.72631389623e-05 0)
(1.1940442405 -6.45883959991e-05 0)
(1.19404274555 -6.23662423541e-05 0)
(1.19404343308 -5.55112149185e-05 0)
(1.19404518733 -4.69336816266e-05 0)
(1.19404735026 -3.82469371911e-05 0)
(1.19404954952 -3.02529195302e-05 0)
(1.19405159293 -2.3255764123e-05 0)
(1.1940534115 -1.72796306824e-05 0)
(1.19405499939 -1.22511835635e-05 0)
(1.19405637242 -8.06369064572e-06 0)
(1.19405754973 -4.66293503897e-06 0)
(1.1940585037 -2.05416932128e-06 0)
(1.19405917808 -1.66518755857e-07 0)
(1.19405953536 1.14598662823e-06 0)
(1.19405965459 1.99861961233e-06 0)
(1.19405971381 2.67631807667e-06 0)
(1.19405974965 3.27847404724e-06 0)
(1.19405973877 3.80402457947e-06 0)
(1.19405969704 4.26191886411e-06 0)
(1.19405961916 4.66667625751e-06 0)
(1.19405949708 5.03307137043e-06 0)
(1.19405933342 5.37321147304e-06 0)
(1.1940591358 5.6902348348e-06 0)
(1.19405891309 5.97568485746e-06 0)
(1.1940587049 6.21265608203e-06 0)
(1.19405855936 6.42256976674e-06 0)
(1.19405850789 6.59987767506e-06 0)
(1.19405859749 6.71841359907e-06 0)
(1.19405888341 6.73782943774e-06 0)
(1.19405939677 6.59662199526e-06 0)
(1.1940601235 6.20118301989e-06 0)
(1.19406115617 5.40445112593e-06 0)
(1.19406264666 3.80895302325e-06 0)
(1.1940652933 1.02752112172e-06 0)
(1.19407011956 -3.24705433514e-06 0)
(1.19407762142 -9.7967076977e-06 0)
(1.19408774993 -1.99915785448e-05 0)
(1.19410129065 -3.58570345304e-05 0)
(1.19412023414 -6.03122484202e-05 0)
(1.19414670727 -9.79408434024e-05 0)
(1.1941835351 -0.00015606095943 0)
(1.19423471127 -0.000246319276598 0)
(1.19430587267 -0.000387195105139 0)
(1.19440490961 -0.000608144604201 0)
(1.19454260446 -0.000956495026911 0)
(1.19473300591 -0.00150874728332 0)
(1.19499289046 -0.00238916363137 0)
(1.19533707693 -0.00380093626945 0)
(1.19576282388 -0.00607693328762 0)
(1.19620979805 -0.00975588870366 0)
(1.19645827122 -0.0156814327973 0)
(1.19592145362 -0.0250641702258 0)
(1.19344490922 -0.0393593069822 0)
(1.18669377935 -0.0598092217613 0)
(1.17015019445 -0.085103134337 0)
(0.998962329309 0.0544316323195 0)
(1.05310958007 0.133401614961 0)
(1.11628270205 0.170777564114 0)
(1.17301274633 0.175143875052 0)
(1.21791249548 0.159583605953 0)
(1.25049861719 0.134951016244 0)
(1.27288495434 0.108411649898 0)
(1.28776726854 0.0838849626261 0)
(1.29745273176 0.0630565618542 0)
(1.30366080727 0.0462999106241 0)
(1.30759240587 0.0333205046808 0)
(1.31005376953 0.0235495152367 0)
(1.31157369922 0.0163599007689 0)
(1.31249500711 0.0111713101312 0)
(1.31303870433 0.00749150362545 0)
(1.313346799 0.00492448458066 0)
(1.31351021494 0.00316295538872 0)
(1.31358684611 0.00197475322635 0)
(1.31361322328 0.001188199278 0)
(1.31361207458 0.000678632629786 0)
(1.31359723821 0.000357012734931 0)
(1.31357691924 0.000160759222403 0)
(1.31355592818 4.64750422639e-05 0)
(1.31353663708 -1.58629646437e-05 0)
(1.3135199842 -4.6050589229e-05 0)
(1.31350630114 -5.70598613751e-05 0)
(1.31349540311 -5.73140807685e-05 0)
(1.31348695263 -5.20751213809e-05 0)
(1.31348056141 -4.45117562946e-05 0)
(1.3134758438 -3.64491711759e-05 0)
(1.3134724493 -2.88604131492e-05 0)
(1.31347007506 -2.21991079463e-05 0)
(1.31346846047 -1.66164699289e-05 0)
(1.31346737769 -1.21210446412e-05 0)
(1.31346666143 -8.64639620132e-06 0)
(1.31346621365 -6.0910429591e-06 0)
(1.31346593297 -4.31844223433e-06 0)
(1.31346572951 -3.12015410759e-06 0)
(1.31346560164 -2.26392008651e-06 0)
(1.3134656381 -1.54727159009e-06 0)
(1.31346579821 -9.74002328918e-07 0)
(1.31346590358 -5.61644929699e-07 0)
(1.31346590448 -2.0202007038e-07 0)
(1.31346583428 1.32410128241e-07 0)
(1.31346571557 4.41247200597e-07 0)
(1.31346555889 7.31922477613e-07 0)
(1.3134653679 1.01631144071e-06 0)
(1.31346514539 1.30354105273e-06 0)
(1.31346490083 1.60313856252e-06 0)
(1.31346466675 1.91875468687e-06 0)
(1.31346446701 2.2019755299e-06 0)
(1.31346430992 2.41241878237e-06 0)
(1.31346422575 2.5051051941e-06 0)
(1.31346426737 2.4162150746e-06 0)
(1.31346452445 2.06167867098e-06 0)
(1.31346511473 1.35746786202e-06 0)
(1.31346599637 2.45349575773e-07 0)
(1.3134672936 -1.44597227111e-06 0)
(1.31346942686 -3.97035782898e-06 0)
(1.31347258946 -8.05797818152e-06 0)
(1.31347700238 -1.49845756073e-05 0)
(1.31348289998 -2.63156200107e-05 0)
(1.31349056442 -4.36507991032e-05 0)
(1.31350048398 -7.0166868172e-05 0)
(1.31351297859 -0.000110896004808 0)
(1.31352813636 -0.000173585948127 0)
(1.31354558217 -0.000270319564318 0)
(1.31356401229 -0.00042005142236 0)
(1.31358024837 -0.00065259483063 0)
(1.31358740059 -0.00101516046211 0)
(1.31357143114 -0.00158273294456 0)
(1.3135049309 -0.00247432939845 0)
(1.31333371953 -0.00387714335681 0)
(1.31295029282 -0.00608343701208 0)
(1.31214475459 -0.00953753202328 0)
(1.31051191883 -0.0148807022493 0)
(1.30729872578 -0.0229408069524 0)
(1.30129605327 -0.0345576451094 0)
(1.29063698201 -0.0501678766533 0)
(1.27185094334 -0.0685441461881 0)
(0.995736077507 0.034633866582 0)
(1.04179515504 0.0905689278403 0)
(1.1022284071 0.121549570066 0)
(1.16491414423 0.129605836347 0)
(1.22202569848 0.122009267285 0)
(1.269518962 0.106019934036 0)
(1.30680228578 0.0870975488002 0)
(1.33499540797 0.0686366718726 0)
(1.35574483593 0.05236982884 0)
(1.37069623635 0.0389256076558 0)
(1.38128283162 0.028298063737 0)
(1.3886627608 0.0201712688243 0)
(1.39373042382 0.0141175038139 0)
(1.39715670357 0.00970533138468 0)
(1.39943444944 0.00655059263862 0)
(1.40091977426 0.00433445389768 0)
(1.4018663224 0.00280414582142 0)
(1.40245234399 0.00176574542563 0)
(1.40280144235 0.00107419865093 0)
(1.40299813998 0.000623239642046 0)
(1.40309936243 0.000336414871937 0)
(1.40314281787 0.000159629743267 0)
(1.40315308167 5.51715947356e-05 0)
(1.40314559733 -2.98982922781e-06 0)
(1.40312984346 -3.21136189643e-05 0)
(1.40311144729 -4.38801743618e-05 0)
(1.40309341632 -4.57497393977e-05 0)
(1.40307727528 -4.24071767942e-05 0)
(1.4030636248 -3.67158483431e-05 0)
(1.40305253823 -3.03522567726e-05 0)
(1.40304381435 -2.42318526067e-05 0)
(1.40303712808 -1.88019135621e-05 0)
(1.40303211714 -1.42306083329e-05 0)
(1.40302843199 -1.05201414849e-05 0)
(1.40302577504 -7.57013601913e-06 0)
(1.40302391325 -5.25537241972e-06 0)
(1.40302267024 -3.45325834424e-06 0)
(1.40302189576 -2.01973289072e-06 0)
(1.40302142494 -8.4944012958e-07 0)
(1.40302106146 8.14700317408e-08 0)
(1.40302073789 7.8789210824e-07 0)
(1.4030205397 1.27588812069e-06 0)
(1.40302045265 1.64705954331e-06 0)
(1.40302038413 1.96763870108e-06 0)
(1.40302029974 2.27230691972e-06 0)
(1.40302019272 2.57920299029e-06 0)
(1.40302006138 2.89736700207e-06 0)
(1.40301990765 3.23101394699e-06 0)
(1.40301973345 3.57974772518e-06 0)
(1.40301953149 3.93459189142e-06 0)
(1.40301931288 4.25473764154e-06 0)
(1.40301911141 4.50785864566e-06 0)
(1.40301895516 4.65538183047e-06 0)
(1.40301886913 4.63909655192e-06 0)
(1.40301886964 4.37111503538e-06 0)
(1.40301896223 3.70798075855e-06 0)
(1.40301916419 2.45005016955e-06 0)
(1.40301946098 4.67969186623e-07 0)
(1.40302009828 -2.66010349406e-06 0)
(1.40302126665 -7.69172701668e-06 0)
(1.4030228014 -1.54268936688e-05 0)
(1.40302437654 -2.71904160365e-05 0)
(1.40302552726 -4.48385059777e-05 0)
(1.40302551297 -7.13581183442e-05 0)
(1.40302284391 -0.00011133952364 0)
(1.4030147863 -0.00017181426837 0)
(1.40299653903 -0.000263656654134 0)
(1.40295992354 -0.000403740677366 0)
(1.40289101394 -0.000618124695122 0)
(1.40276611258 -0.000947412967538 0)
(1.40254520343 -0.00145492053315 0)
(1.4021619644 -0.0022390587319 0)
(1.40150489974 -0.00344884999386 0)
(1.40038573987 -0.00530796484261 0)
(1.3984913026 -0.00813912677003 0)
(1.39530859606 -0.0123770072648 0)
(1.39002479377 -0.0185323737669 0)
(1.38149215253 -0.027042699934 0)
(1.36821525614 -0.0379894402855 0)
(1.3478030433 -0.0504800331127 0)
(0.994011534302 0.0192358123382 0)
(1.03484764578 0.0523338460568 0)
(1.09199264439 0.0723631312776 0)
(1.1566242241 0.0791292330956 0)
(1.22032119476 0.0761045441797 0)
(1.27701949104 0.0673339663804 0)
(1.32424423442 0.0561508959829 0)
(1.36181578894 0.0447990018137 0)
(1.39068536874 0.0345303676833 0)
(1.41226081881 0.0258814226441 0)
(1.42801829817 0.0189465150551 0)
(1.4392989246 0.013584974589 0)
(1.44722816438 0.00955652854133 0)
(1.45270422562 0.00660011154022 0)
(1.456419055 0.00447418827768 0)
(1.45889154395 0.00297351330158 0)
(1.46050241106 0.00193277012691 0)
(1.46152580963 0.00122369668939 0)
(1.46215582689 0.000749554758559 0)
(1.46252765318 0.000439023143802 0)
(1.46273393217 0.000240527701364 0)
(1.46283707753 0.000117419656034 0)
(1.46287838381 4.40582835813e-05 0)
(1.46288462746 2.70089981684e-06 0)
(1.46287250827 -1.84335067508e-05 0)
(1.46285216279 -2.74264532517e-05 0)
(1.46282961773 -2.94255455574e-05 0)
(1.46280808621 -2.76746657302e-05 0)
(1.46278909586 -2.41728825868e-05 0)
(1.46277319012 -2.00988210036e-05 0)
(1.46276035987 -1.61039223585e-05 0)
(1.46275031228 -1.25104764339e-05 0)
(1.4627426357 -9.44442264098e-06 0)
(1.46273689769 -6.91706481025e-06 0)
(1.46273270029 -4.87479481414e-06 0)
(1.46272970063 -3.2480285056e-06 0)
(1.46272761007 -1.97313501263e-06 0)
(1.46272617187 -1.00932654163e-06 0)
(1.46272517519 -3.10830524226e-07 0)
(1.46272455642 2.07296288895e-07 0)
(1.46272420023 6.88774068421e-07 0)
(1.46272395814 1.16468979159e-06 0)
(1.46272379924 1.58937668765e-06 0)
(1.46272368347 1.96985353077e-06 0)
(1.46272358086 2.32635378889e-06 0)
(1.46272347251 2.6719257955e-06 0)
(1.46272334509 3.01162968072e-06 0)
(1.46272318944 3.34339239881e-06 0)
(1.46272300107 3.65722017054e-06 0)
(1.46272277795 3.93969193639e-06 0)
(1.4627225236 4.18261907075e-06 0)
(1.46272224591 4.35511716861e-06 0)
(1.46272195183 4.40571691321e-06 0)
(1.46272165158 4.26495090174e-06 0)
(1.46272136232 3.84143997135e-06 0)
(1.46272110709 3.02595912949e-06 0)
(1.46272084332 1.6984057277e-06 0)
(1.4627204887 -2.67922745724e-07 0)
(1.46271992695 -3.10583624471e-06 0)
(1.46271901006 -7.69636453372e-06 0)
(1.46271746733 -1.48202096717e-05 0)
(1.46271462121 -2.55710914798e-05 0)
(1.46270935683 -4.14971825376e-05 0)
(1.46269986875 -6.49839136476e-05 0)
(1.46268309531 -9.96328159421e-05 0)
(1.46265389995 -0.000150837940762 0)
(1.46260377647 -0.000226783010526 0)
(1.46251896938 -0.000339941687493 0)
(1.46237702532 -0.000508926398905 0)
(1.46214111908 -0.000762153671143 0)
(1.46175129881 -0.00114336213501 0)
(1.46111298412 -0.00172021193706 0)
(1.46007511247 -0.00258844332731 0)
(1.45839677196 -0.00388756821552 0)
(1.45570412627 -0.00580993751273 0)
(1.45143191936 -0.00859861410897 0)
(1.44475999964 -0.0125136607766 0)
(1.43461965044 -0.017735389012 0)
(1.41975194439 -0.024211882985 0)
(1.39831183048 -0.0313969513125 0)
(0.99326966994 0.00617015555783 0)
(1.0315810086 0.0171020507269 0)
(1.08672183351 0.0239906514033 0)
(1.15174556629 0.026560666086 0)
(1.21823539147 0.0258180564476 0)
(1.279257777 0.0230488810674 0)
(1.33140140249 0.0193656243517 0)
(1.37377603809 0.0155468495035 0)
(1.40691059319 0.0120449212141 0)
(1.43203320218 0.0090663909793 0)
(1.45060222531 0.00666058699315 0)
(1.4640299419 0.00479008525149 0)
(1.47355025128 0.00337842393756 0)
(1.48017573032 0.00233873574044 0)
(1.48470238902 0.00158891346135 0)
(1.48773630949 0.00105829014437 0)
(1.48972745032 0.000689465465656 0)
(1.49100288293 0.000437642517071 0)
(1.49179596537 0.000268891274842 0)
(1.49227033854 0.0001581180248 0)
(1.49253883356 8.71329059885e-05 0)
(1.49267791397 4.29844570244e-05 0)
(1.49273845235 1.65958809132e-05 0)
(1.49275363212 1.67642842783e-06 0)
(1.4927444017 -6.05536255974e-06 0)
(1.49272362023 -9.39975731761e-06 0)
(1.49269898319 -1.02045588207e-05 0)
(1.49267471794 -9.63991238693e-06 0)
(1.49265292282 -8.42467849428e-06 0)
(1.49263443797 -6.97885059445e-06 0)
(1.49261938467 -5.53966482082e-06 0)
(1.49260750341 -4.22891763997e-06 0)
(1.49259836345 -3.09360256996e-06 0)
(1.49259148875 -2.13979397739e-06 0)
(1.49258642635 -1.35190402327e-06 0)
(1.49258277575 -7.07825188132e-07 0)
(1.49258020116 -1.85565618555e-07 0)
(1.49257843312 2.37088872045e-07 0)
(1.49257726404 6.07181060033e-07 0)
(1.49257651843 9.7419593359e-07 0)
(1.49257604409 1.27891719259e-06 0)
(1.49257574606 1.56425945342e-06 0)
(1.49257556849 1.84676169242e-06 0)
(1.49257545838 2.13637062778e-06 0)
(1.49257537599 2.43992309329e-06 0)
(1.49257529549 2.75955017299e-06 0)
(1.49257519836 3.09351859373e-06 0)
(1.49257507099 3.43778862466e-06 0)
(1.49257490316 3.78409904998e-06 0)
(1.49257468643 4.11783853622e-06 0)
(1.4925744157 4.41928512354e-06 0)
(1.49257408718 4.65545288881e-06 0)
(1.49257369467 4.78167136213e-06 0)
(1.49257322632 4.73595884541e-06 0)
(1.49257265892 4.43406010414e-06 0)
(1.49257196654 3.75628976705e-06 0)
(1.49257113852 2.54554649871e-06 0)
(1.49257003239 7.36704954863e-07 0)
(1.49256823526 -1.92643621666e-06 0)
(1.49256545779 -6.07238884113e-06 0)
(1.49256130295 -1.22334248617e-05 0)
(1.49255474186 -2.11831428844e-05 0)
(1.4925441662 -3.40108772096e-05 0)
(1.49252703503 -5.22717538267e-05 0)
(1.49249923458 -7.8167687711e-05 0)
(1.49245406703 -0.000114731302271 0)
(1.4923806588 -0.000166338692476 0)
(1.49226194242 -0.000239488624418 0)
(1.49207056209 -0.000342686052627 0)
(1.49176192565 -0.000488473403908 0)
(1.4912637489 -0.000697023693502 0)
(1.49046729764 -0.00100207818494 0)
(1.48920321756 -0.00143609463147 0)
(1.48720570226 -0.00204657141477 0)
(1.48407637174 -0.00289486070442 0)
(1.4792355087 -0.00404844218058 0)
(1.47187643258 -0.00556158087221 0)
(1.46098586074 -0.00743576748728 0)
(1.44541691758 -0.00957695723163 0)
(1.42356062298 -0.0117366551035 0)
(0.99327046743 -0.00616839749777 0)
(1.03158099011 -0.0171003723562 0)
(1.08672176543 -0.0239897600889 0)
(1.15174560189 -0.026560247712 0)
(1.21823546704 -0.0258179963048 0)
(1.27925787676 -0.0230491156074 0)
(1.3314015268 -0.0193660542898 0)