/*--------------------------------*- C++ -*----------------------------------*\
| =========                 |                                                 |
| \\      /  F ield         | OpenFOAM: The Open Source CFD Toolbox           |
|  \\    /   O peration     | Version:  2106                                  |
|   \\  /    A nd           | Website:  www.openfoam.com                      |
|    \\/     M anipulation  |                                                 |
\*---------------------------------------------------------------------------*/
FoamFile
{
    version     2.0;
    format      ascii;
    arch        "LSB;label=32;scalar=64";
    class       volScalarField;
    location    "0.003";
    object      p;
}
// * * * * * * * * * * * * * * * * * * * * * * * * * * * * * * * * * * * * * //

dimensions      [0 2 -2 0 0 0 0];

internalField   nonuniform List<scalar> 
160000
(
7.06881
0.03189
12.7386
-3.30114
13.5733
-1.9258
10.8488
1.33493
7.82094
3.79992
6.11079
4.91842
5.50826
5.26704
5.38244
5.35875
5.38575
5.39634
5.41199
5.42751
5.44342
5.45939
5.47548
5.49185
5.50825
5.5246
5.54081
5.55701
5.57311
5.58885
5.60433
5.61943
5.63411
5.64842
5.66217
5.67529
5.68772
5.69952
5.71061
5.72096
5.7306
5.73934
5.74715
5.75406
5.7601
5.76533
5.76954
5.77281
5.77516
5.77649
5.77677
5.77606
5.77441
5.77173
5.768
5.76339
5.75789
5.75148
5.74416
5.73596
5.72695
5.71714
5.70664
5.69539
5.68348
5.67103
5.65804
5.64456
5.63056
5.61619
5.60152
5.58654
5.57134
5.55593
5.54046
5.52496
5.50945
5.49406
5.47881
5.46377
5.44899
5.43451
5.42047
5.4069
5.39383
5.38129
5.36931
5.35805
5.34749
5.33769
5.32866
5.32038
5.31299
5.30645
5.3008
5.29609
5.29229
5.28952
5.28769
5.28686
5.28699
5.28808
5.29019
5.29326
5.29737
5.30237
5.30832
5.31518
5.32287
5.33146
5.34082
5.35096
5.36185
5.37339
5.38563
5.39847
5.41189
5.42582
5.44015
5.45492
5.46997
5.48531
5.50088
5.51658
5.5324
5.54821
5.56399
5.57969
5.59523
5.6106
5.62567
5.64041
5.65476
5.66863
5.68203
5.69485
5.70708
5.71865
5.7295
5.73963
5.74895
5.75745
5.76511
5.77189
5.7778
5.78274
5.78679
5.78983
5.79191
5.79301
5.79307
5.7922
5.7903
5.78746
5.78369
5.77894
5.77332
5.76677
5.75934
5.75107
5.74193
5.73202
5.72133
5.70995
5.69792
5.68526
5.67209
5.6584
5.64427
5.62977
5.61493
5.59981
5.58449
5.56902
5.55346
5.53788
5.52234
5.5069
5.49162
5.47656
5.46176
5.44729
5.43319
5.41951
5.40632
5.39366
5.3816
5.37019
5.35947
5.34949
5.34029
5.33188
5.32432
5.31763
5.31184
5.30697
5.30306
5.30013
5.29818
5.29722
5.29724
5.29824
5.30022
5.30316
5.30706
5.31192
5.31772
5.32443
5.33201
5.34045
5.34969
5.3597
5.37044
5.38186
5.39392
5.40657
5.41978
5.43347
5.4476
5.4621
5.47691
5.49199
5.50728
5.52272
5.53826
5.55384
5.56939
5.58484
5.60015
5.61523
5.63006
5.64455
5.65869
5.67239
5.68557
5.69823
5.71025
5.72163
5.73232
5.74224
5.75142
5.75975
5.76722
5.77381
5.77943
5.78416
5.78789
5.79069
5.79255
5.79341
5.79335
5.79227
5.79021
5.78718
5.78316
5.77823
5.77235
5.76557
5.7579
5.74939
5.74005
5.72991
5.71906
5.7075
5.69528
5.68245
5.66904
5.65516
5.64082
5.62611
5.61109
5.59575
5.58021
5.56448
5.54865
5.5328
5.51696
5.50127
5.4857
5.47037
5.45531
5.44055
5.42624
5.41235
5.39898
5.38614
5.37387
5.36229
5.35138
5.34123
5.33187
5.32329
5.31559
5.30874
5.30282
5.29784
5.29378
5.29071
5.28857
5.28743
5.28728
5.28813
5.28998
5.29276
5.29654
5.30125
5.3069
5.31347
5.32085
5.32912
5.33816
5.348
5.35859
5.36984
5.38177
5.39428
5.40737
5.42099
5.43501
5.44946
5.46422
5.47927
5.49454
5.50992
5.52541
5.54092
5.55641
5.57181
5.587
5.60202
5.61674
5.63114
5.64514
5.65865
5.6717
5.68416
5.69604
5.70728
5.71778
5.72759
5.73659
5.7448
5.75215
5.7586
5.76417
5.76877
5.7724
5.77505
5.7768
5.77757
5.77728
5.77603
5.77377
5.77051
5.76629
5.76114
5.75507
5.74801
5.74013
5.73143
5.72189
5.71162
5.70055
5.68873
5.67632
5.66324
5.64961
5.63543
5.62072
5.60567
5.59027
5.57453
5.55859
5.54254
5.52633
5.51008
5.49387
5.47767
5.46162
5.44572
5.43005
5.41476
5.39885
5.38811
5.36142
5.38518
5.27016
5.51153
4.92216
6.11484
3.80439
7.82622
1.34073
10.8558
-1.91741
13.5837
-3.28651
12.7597
0.0683963
7.07846
0.054678
-6.93695
5.71354
-10.285
6.56081
-8.90996
3.85177
-5.64954
0.832232
-3.18445
-0.87467
-2.06569
-1.47617
-1.71695
-1.60167
-1.62521
-1.59836
-1.58766
-1.57191
-1.55642
-1.54062
-1.52459
-1.50842
-1.49212
-1.47578
-1.45937
-1.44309
-1.42693
-1.41094
-1.39515
-1.37961
-1.36454
-1.34985
-1.33559
-1.32188
-1.3087
-1.29623
-1.28443
-1.27333
-1.26304
-1.25345
-1.24469
-1.23682
-1.22984
-1.22377
-1.2186
-1.21441
-1.21116
-1.20887
-1.20759
-1.20727
-1.20799
-1.20968
-1.21232
-1.21595
-1.22054
-1.2261
-1.23251
-1.23983
-1.24804
-1.25702
-1.26681
-1.27731
-1.28855
-1.30044
-1.31291
-1.32598
-1.33948
-1.35348
-1.36784
-1.38252
-1.39751
-1.41267
-1.42802
-1.44349
-1.45899
-1.4745
-1.48987
-1.50514
-1.52019
-1.53498
-1.54945
-1.56348
-1.57709
-1.59018
-1.60269
-1.61465
-1.62591
-1.63651
-1.64633
-1.65536
-1.66362
-1.67101
-1.67756
-1.68321
-1.68792
-1.69171
-1.69448
-1.69632
-1.69716
-1.69702
-1.6959
-1.69378
-1.69073
-1.68666
-1.68166
-1.67571
-1.66885
-1.66115
-1.65256
-1.6432
-1.63305
-1.62214
-1.61059
-1.59834
-1.58551
-1.57211
-1.55819
-1.54386
-1.5291
-1.51404
-1.4987
-1.48313
-1.46745
-1.45163
-1.43581
-1.42001
-1.40429
-1.38876
-1.3734
-1.35835
-1.34362
-1.32926
-1.31539
-1.30198
-1.28916
-1.27694
-1.26537
-1.25454
-1.24441
-1.2351
-1.22657
-1.21889
-1.2121
-1.20618
-1.20125
-1.19722
-1.19419
-1.19213
-1.19103
-1.19096
-1.19181
-1.19369
-1.19651
-1.20027
-1.20502
-1.21065
-1.21721
-1.22467
-1.23297
-1.24213
-1.25204
-1.26275
-1.27412
-1.28614
-1.29878
-1.31194
-1.32562
-1.33972
-1.35421
-1.36906
-1.38416
-1.39948
-1.41496
-1.43052
-1.4461
-1.46165
-1.47709
-1.49238
-1.50745
-1.52225
-1.53673
-1.55084
-1.56452
-1.57771
-1.59037
-1.60243
-1.61384
-1.62456
-1.63455
-1.64376
-1.65217
-1.65972
-1.66641
-1.67219
-1.67705
-1.68095
-1.68388
-1.68583
-1.68679
-1.68677
-1.68577
-1.6838
-1.68086
-1.67696
-1.6721
-1.66631
-1.65961
-1.65203
-1.6436
-1.63436
-1.62435
-1.61361
-1.60219
-1.59012
-1.57746
-1.56425
-1.55056
-1.53643
-1.52193
-1.50712
-1.49204
-1.47675
-1.46131
-1.44576
-1.43018
-1.41463
-1.39917
-1.38386
-1.36876
-1.35392
-1.33943
-1.32529
-1.3116
-1.29843
-1.28577
-1.27376
-1.26239
-1.25169
-1.24178
-1.2326
-1.22428
-1.21682
-1.21022
-1.2046
-1.19986
-1.19611
-1.1933
-1.19144
-1.19058
-1.19066
-1.19175
-1.19382
-1.19685
-1.20087
-1.20579
-1.21167
-1.21844
-1.2261
-1.23463
-1.24397
-1.25411
-1.26496
-1.27654
-1.28875
-1.30157
-1.31497
-1.32883
-1.34317
-1.35789
-1.37292
-1.38827
-1.40381
-1.41954
-1.43536
-1.45119
-1.46703
-1.48273
-1.4983
-1.51364
-1.52869
-1.54344
-1.55774
-1.57164
-1.58502
-1.59786
-1.61013
-1.6217
-1.63261
-1.64277
-1.65214
-1.66072
-1.66842
-1.67526
-1.68119
-1.68617
-1.69024
-1.69331
-1.69545
-1.69657
-1.69672
-1.69588
-1.69403
-1.69126
-1.68747
-1.68276
-1.67712
-1.67056
-1.66317
-1.65488
-1.64584
-1.63599
-1.62541
-1.61416
-1.60222
-1.5897
-1.57663
-1.56303
-1.549
-1.53455
-1.51979
-1.50475
-1.48947
-1.47408
-1.45857
-1.44305
-1.42756
-1.41216
-1.39697
-1.38194
-1.36725
-1.35285
-1.33886
-1.32536
-1.31232
-1.29985
-1.28797
-1.27673
-1.26622
-1.25639
-1.2474
-1.23921
-1.23187
-1.22542
-1.21987
-1.21529
-1.21161
-1.20894
-1.20722
-1.20647
-1.20674
-1.20799
-1.21025
-1.21347
-1.21767
-1.22286
-1.22892
-1.23595
-1.24383
-1.25253
-1.26209
-1.27239
-1.28344
-1.29523
-1.30768
-1.32075
-1.3344
-1.3486
-1.36325
-1.3783
-1.39376
-1.40943
-1.42537
-1.44146
-1.45764
-1.47392
-1.49013
-1.50633
-1.52238
-1.53826
-1.55397
-1.56908
-1.58516
-1.59597
-1.62256
-1.59888
-1.71394
-1.47277
-2.06207
-0.870622
-3.17998
0.837359
-5.64382
3.8586
-8.90194
6.57048
-10.2721
5.7292
-6.9185
0.060876
12.7452
5.71381
18.3955
2.34994
19.2114
3.71765
16.4804
6.97255
13.4511
9.43341
11.741
10.5499
11.1387
10.8977
11.0128
10.9893
11.0159
11.0268
11.0426
11.058
11.0738
11.0898
11.1059
11.1222
11.1386
11.1549
11.1712
11.1874
11.2034
11.2191
11.2347
11.2498
11.2645
11.2787
11.2924
11.3056
11.3181
11.3299
11.341
11.3513
11.3609
11.3696
11.3775
11.3845
11.3906
11.3958
11.4
11.4032
11.4054
11.4067
11.407
11.4063
11.4046
11.402
11.3983
11.3938
11.3882
11.3818
11.3745
11.3663
11.3573
11.3475
11.337
11.3258
11.3139
11.3014
11.2884
11.2749
11.2609
11.2466
11.2319
11.2168
11.2016
11.1863
11.1708
11.1553
11.1398
11.1244
11.1091
11.0941
11.0793
11.0649
11.0508
11.0372
11.0241
11.0116
10.9997
10.9884
10.9778
10.968
10.9589
10.9507
10.9433
10.9368
10.9311
10.9264
10.9226
10.9198
10.918
10.9171
10.9173
10.9184
10.9205
10.9236
10.9277
10.9327
10.9386
10.9454
10.9531
10.9617
10.9711
10.9812
10.9921
11.0037
11.0159
11.0288
11.0422
11.0561
11.0704
11.0852
11.1003
11.1156
11.1312
11.1468
11.1627
11.1785
11.1943
11.21
11.2255
11.2409
11.2559
11.2707
11.285
11.2989
11.3123
11.3251
11.3374
11.3489
11.3598
11.3699
11.3792
11.3878
11.3954
11.4022
11.4081
11.4131
11.4171
11.4201
11.4222
11.4233
11.4234
11.4225
11.4206
11.4178
11.414
11.4093
11.4036
11.3971
11.3896
11.3813
11.3722
11.3623
11.3516
11.3402
11.3282
11.3156
11.3024
11.2887
11.2746
11.2601
11.2452
11.2301
11.2148
11.1993
11.1838
11.1682
11.1527
11.1372
11.1219
11.1068
11.092
11.0775
11.0634
11.0498
11.0366
11.0239
11.0119
11.0005
10.9897
10.9798
10.9706
10.9621
10.9546
10.9479
10.9421
10.9373
10.9334
10.9304
10.9285
10.9275
10.9275
10.9285
10.9305
10.9334
10.9373
10.9422
10.948
10.9547
10.9623
10.9707
10.98
10.99
11.0007
11.0121
11.0242
11.0368
11.05
11.0637
11.0778
11.0923
11.1072
11.1223
11.1375
11.153
11.1685
11.1841
11.1997
11.2151
11.2304
11.2455
11.2604
11.2749
11.289
11.3027
11.3159
11.3285
11.3405
11.3519
11.3626
11.3725
11.3817
11.39
11.3975
11.4041
11.4097
11.4144
11.4182
11.421
11.4229
11.4237
11.4237
11.4226
11.4205
11.4175
11.4134
11.4085
11.4026
11.3959
11.3882
11.3797
11.3703
11.3602
11.3494
11.3378
11.3256
11.3127
11.2993
11.2855
11.2711
11.2564
11.2414
11.226
11.2105
11.1947
11.1789
11.1631
11.1473
11.1316
11.116
11.1007
11.0856
11.0708
11.0565
11.0426
11.0293
11.0164
11.0042
10.9926
10.9817
10.9715
10.9622
10.9536
10.9459
10.939
10.9331
10.9281
10.9241
10.921
10.9189
10.9177
10.9176
10.9184
10.9203
10.9231
10.9268
10.9316
10.9372
10.9437
10.9511
10.9594
10.9685
10.9783
10.9889
11.0001
11.0121
11.0246
11.0377
11.0513
11.0653
11.0798
11.0945
11.1096
11.1248
11.1402
11.1557
11.1712
11.1867
11.2021
11.2173
11.2323
11.247
11.2614
11.2754
11.289
11.302
11.3145
11.3264
11.3376
11.3481
11.3579
11.3669
11.3751
11.3825
11.3889
11.3944
11.399
11.4027
11.4054
11.4071
11.4078
11.4075
11.4063
11.404
11.4008
11.3966
11.3915
11.3854
11.3784
11.3705
11.3618
11.3522
11.3419
11.3309
11.3191
11.3066
11.2935
11.2799
11.2657
11.251
11.236
11.2206
11.2049
11.1889
11.1729
11.1567
11.1404
11.1242
11.108
11.092
11.0761
11.0604
11.0453
11.0292
11.0184
10.9919
11.0156
10.9008
11.1419
10.5535
11.745
9.43772
13.4561
6.97799
16.4868
3.7249
19.2199
2.36
18.406
5.72367
12.7484
-3.30544
-10.2903
2.34599
-13.6362
3.18775
-12.2628
0.483217
-9.00493
-2.53142
-6.54214
-4.23557
-5.42464
-4.83602
-5.07644
-4.96138
-4.98485
-4.95819
-4.9473
-4.93125
-4.91609
-4.90028
-4.8843
-4.86813
-4.85182
-4.83552
-4.81915
-4.80285
-4.78668
-4.77068
-4.75493
-4.73944
-4.72434
-4.70963
-4.69538
-4.68171
-4.66857
-4.65608
-4.64426
-4.63312
-4.6228
-4.61323
-4.60452
-4.59664
-4.58963
-4.58356
-4.57837
-4.57417
-4.57093
-4.56865
-4.5674
-4.56708
-4.5678
-4.56949
-4.57214
-4.57579
-4.58036
-4.58591
-4.59234
-4.59965
-4.60784
-4.61682
-4.62663
-4.63713
-4.64836
-4.66024
-4.67271
-4.68577
-4.69928
-4.71327
-4.72763
-4.74232
-4.75732
-4.7725
-4.78788
-4.80333
-4.81882
-4.83435
-4.84974
-4.86501
-4.88006
-4.89481
-4.90928
-4.92332
-4.93693
-4.95004
-4.96255
-4.97449
-4.98574
-4.99634
-5.00618
-5.01524
-5.02352
-5.0309
-5.03744
-5.04307
-5.04778
-5.05157
-5.05436
-5.05621
-5.05705
-5.0569
-5.05578
-5.05365
-5.05059
-5.04652
-5.04154
-5.0356
-5.02874
-5.02105
-5.01248
-5.00311
-4.99296
-4.98206
-4.9705
-4.95823
-4.94539
-4.93199
-4.91807
-4.90375
-4.88898
-4.87393
-4.85859
-4.84302
-4.82734
-4.81152
-4.7957
-4.7799
-4.76418
-4.74865
-4.73329
-4.71825
-4.70351
-4.68916
-4.67529
-4.66188
-4.64906
-4.63685
-4.62528
-4.61445
-4.60431
-4.59498
-4.58645
-4.57877
-4.572
-4.56608
-4.56114
-4.55711
-4.55408
-4.55201
-4.55091
-4.55083
-4.55168
-4.55356
-4.55638
-4.56015
-4.5649
-4.57053
-4.5771
-4.58456
-4.59286
-4.60203
-4.61193
-4.62262
-4.63399
-4.646
-4.65865
-4.67181
-4.68549
-4.6996
-4.7141
-4.72894
-4.74405
-4.75937
-4.77484
-4.79039
-4.80598
-4.82153
-4.83698
-4.85228
-4.86736
-4.88217
-4.89665
-4.91076
-4.92445
-4.93764
-4.95029
-4.96235
-4.97375
-4.98447
-4.99446
-5.00368
-5.01208
-5.01964
-5.02632
-5.03209
-5.03694
-5.04084
-5.04377
-5.04573
-5.0467
-5.04668
-5.04568
-5.04371
-5.04077
-5.03687
-5.03201
-5.02622
-5.01952
-5.01194
-5.00351
-4.99428
-4.98428
-4.97355
-4.96212
-4.95005
-4.93738
-4.92418
-4.91049
-4.89636
-4.88187
-4.86705
-4.85196
-4.83665
-4.8212
-4.80566
-4.79009
-4.77453
-4.75908
-4.74376
-4.72865
-4.71381
-4.6993
-4.68518
-4.6715
-4.65833
-4.64568
-4.63367
-4.62229
-4.6116
-4.60168
-4.59251
-4.5842
-4.57674
-4.57015
-4.56451
-4.55977
-4.556
-4.55318
-4.55132
-4.55046
-4.55055
-4.55165
-4.55371
-4.55674
-4.56076
-4.56567
-4.57156
-4.57834
-4.586
-4.59454
-4.60387
-4.61402
-4.62486
-4.63644
-4.64865
-4.66146
-4.67486
-4.68871
-4.70305
-4.71778
-4.73282
-4.74817
-4.76371
-4.77943
-4.79524
-4.81107
-4.8269
-4.8426
-4.85817
-4.87352
-4.88856
-4.90332
-4.91762
-4.93152
-4.94491
-4.95774
-4.97001
-4.98158
-4.9925
-5.00266
-5.01203
-5.02061
-5.0283
-5.03514
-5.04107
-5.04605
-5.05012
-5.05319
-5.05532
-5.05645
-5.05659
-5.05576
-5.05391
-5.05113
-5.04734
-5.04264
-5.037
-5.03044
-5.02306
-5.01477
-5.00572
-4.99587
-4.98529
-4.97403
-4.96209
-4.94957
-4.93649
-4.92289
-4.90887
-4.89442
-4.87967
-4.86463
-4.84935
-4.83397
-4.81845
-4.80294
-4.78744
-4.77204
-4.75684
-4.74181
-4.7271
-4.71271
-4.69872
-4.68521
-4.67216
-4.65969
-4.64782
-4.63658
-4.62607
-4.61624
-4.60725
-4.59905
-4.59172
-4.58528
-4.57972
-4.57514
-4.57145
-4.56877
-4.56706
-4.56631
-4.56659
-4.56783
-4.57009
-4.57332
-4.57751
-4.58269
-4.58874
-4.59576
-4.60363
-4.61234
-4.62189
-4.6322
-4.64328
-4.65507
-4.6675
-4.6806
-4.69424
-4.70843
-4.72308
-4.73813
-4.75356
-4.76923
-4.78516
-4.80124
-4.81743
-4.8337
-4.84991
-4.86612
-4.88216
-4.89802
-4.91368
-4.92879
-4.94491
-4.95568
-4.98225
-4.9586
-5.07349
-4.83281
-5.42122
-4.2318
-6.53804
-2.5268
-8.99994
0.488994
-12.2566
3.19472
-13.6287
2.35269
-10.2848
-3.30393
13.5585
6.54656
19.1999
3.18089
20.0086
4.54003
17.2796
7.78682
14.254
10.2426
12.5461
11.3569
11.9444
11.7039
11.8186
11.7951
11.8217
11.8326
11.8486
11.8637
11.8795
11.8955
11.9116
11.9279
11.9442
11.9606
11.9769
11.993
12.009
12.0248
12.0403
12.0554
12.0701
12.0843
12.098
12.1111
12.1236
12.1354
12.1466
12.1569
12.1665
12.1752
12.1831
12.1901
12.1961
12.2013
12.2055
12.2088
12.211
12.2123
12.2126
12.2119
12.2102
12.2076
12.2039
12.1993
12.1938
12.1874
12.1801
12.1719
12.1629
12.1531
12.1426
12.1313
12.1194
12.107
12.0939
12.0804
12.0665
12.0521
12.0374
12.0224
12.0072
11.9918
11.9763
11.9608
11.9453
11.9299
11.9147
11.8996
11.8849
11.8704
11.8564
11.8428
11.8297
11.8171
11.8052
11.7939
11.7833
11.7735
11.7644
11.7562
11.7488
11.7422
11.7366
11.7319
11.7281
11.7253
11.7235
11.7226
11.7228
11.7239
11.726
11.7291
11.7331
11.7381
11.7441
11.7509
11.7586
11.7672
11.7765
11.7867
11.7976
11.8091
11.8214
11.8342
11.8477
11.8616
11.8759
11.8907
11.9057
11.9211
11.9366
11.9523
11.9681
11.9839
11.9997
12.0155
12.031
12.0464
12.0614
12.0761
12.0905
12.1044
12.1178
12.1306
12.1428
12.1544
12.1652
12.1754
12.1847
12.1932
12.2009
12.2077
12.2136
12.2185
12.2226
12.2256
12.2277
12.2288
12.2289
12.228
12.2261
12.2233
12.2195
12.2148
12.2091
12.2025
12.1951
12.1868
12.1776
12.1677
12.1571
12.1457
12.1337
12.121
12.1079
12.0942
12.0801
12.0656
12.0507
12.0356
12.0203
12.0048
11.9893
11.9737
11.9581
11.9427
11.9274
11.9123
11.8975
11.883
11.8689
11.8552
11.842
11.8293
11.8173
11.8059
11.7952
11.7852
11.776
11.7676
11.76
11.7533
11.7476
11.7427
11.7388
11.7359
11.7339
11.7329
11.7329
11.7339
11.7359
11.7389
11.7428
11.7476
11.7534
11.7601
11.7677
11.7762
11.7854
11.7954
11.8061
11.8175
11.8296
11.8423
11.8555
11.8691
11.8833
11.8978
11.9126
11.9277
11.943
11.9585
11.974
11.9896
12.0051
12.0206
12.0359
12.051
12.0659
12.0804
12.0945
12.1082
12.1213
12.134
12.146
12.1574
12.1681
12.178
12.1871
12.1955
12.2029
12.2095
12.2151
12.2199
12.2237
12.2265
12.2283
12.2292
12.2291
12.228
12.226
12.2229
12.2189
12.214
12.2081
12.2013
12.1937
12.1851
12.1758
12.1656
12.1548
12.1432
12.131
12.1182
12.1048
12.0909
12.0766
12.0619
12.0468
12.0315
12.0159
12.0002
11.9844
11.9686
11.9527
11.937
11.9215
11.9061
11.8911
11.8763
11.862
11.8481
11.8347
11.8219
11.8096
11.7981
11.7871
11.777
11.7676
11.759
11.7514
11.7445
11.7386
11.7336
11.7295
11.7265
11.7243
11.7232
11.7231
11.7239
11.7258
11.7285
11.7323
11.737
11.7427
11.7492
11.7566
11.7649
11.7739
11.7838
11.7944
11.8056
11.8176
11.8301
11.8432
11.8568
11.8708
11.8853
11.9
11.9151
11.9303
11.9457
11.9612
11.9767
11.9922
12.0076
12.0228
12.0379
12.0526
12.067
12.081
12.0945
12.1075
12.12
12.1319
12.1431
12.1536
12.1635
12.1724
12.1807
12.188
12.1944
12.2
12.2046
12.2083
12.2109
12.2126
12.2134
12.2131
12.2118
12.2096
12.2064
12.2022
12.197
12.191
12.1839
12.1761
12.1674
12.1578
12.1475
12.1364
12.1246
12.1122
12.0991
12.0855
12.0713
12.0566
12.0416
12.0261
12.0105
11.9945
11.9785
11.9623
11.946
11.9298
11.9136
11.8976
11.8817
11.8661
11.851
11.8349
11.8242
11.7977
11.8214
11.7068
11.9475
11.3602
12.5497
10.2465
14.2582
7.7913
17.2845
4.54521
20.0141
3.18629
19.2045
6.55004
13.5596
-1.95168
-8.93467
3.696
-12.2794
4.53053
-10.9088
1.82343
-7.65557
-1.19041
-5.19663
-2.89352
-4.0812
-3.49361
-3.7338
-3.61902
-3.64251
-3.61592
-3.60507
-3.58899
-3.57393
-3.55814
-3.54219
-3.52607
-3.50978
-3.49349
-3.47712
-3.46086
-3.4447
-3.42872
-3.41298
-3.3975
-3.38241
-3.36773
-3.3535
-3.33982
-3.32667
-3.3142
-3.30237
-3.29124
-3.28091
-3.27133
-3.26261
-3.25474
-3.24773
-3.24165
-3.23648
-3.23228
-3.22904
-3.22677
-3.2255
-3.22519
-3.22591
-3.2276
-3.23025
-3.23391
-3.23848
-3.24403
-3.25046
-3.25778
-3.26597
-3.27495
-3.28476
-3.29525
-3.30649
-3.31836
-3.33082
-3.34389
-3.35739
-3.37139
-3.38575
-3.40045
-3.41546
-3.43064
-3.44604
-3.46152
-3.47701
-3.49253
-3.50792
-3.52318
-3.53823
-3.55299
-3.56745
-3.58149
-3.5951
-3.60819
-3.62071
-3.63267
-3.64392
-3.65454
-3.66438
-3.67344
-3.68171
-3.68909
-3.69564
-3.70128
-3.70599
-3.70978
-3.71257
-3.71441
-3.71525
-3.7151
-3.71398
-3.71185
-3.7088
-3.70474
-3.69976
-3.69382
-3.68696
-3.67927
-3.6707
-3.66134
-3.65119
-3.6403
-3.62872
-3.61646
-3.60362
-3.59021
-3.57631
-3.56198
-3.54722
-3.53217
-3.51682
-3.50126
-3.48557
-3.46975
-3.45393
-3.43813
-3.4224
-3.40688
-3.39152
-3.37647
-3.36174
-3.34738
-3.33352
-3.32011
-3.3073
-3.29509
-3.28351
-3.27267
-3.26253
-3.2532
-3.24467
-3.23699
-3.23021
-3.22429
-3.21936
-3.21532
-3.21229
-3.21021
-3.20912
-3.20903
-3.20989
-3.21177
-3.21459
-3.21836
-3.22311
-3.22875
-3.23532
-3.24278
-3.25108
-3.26024
-3.27014
-3.28083
-3.29219
-3.3042
-3.31684
-3.33001
-3.34369
-3.35781
-3.37232
-3.38716
-3.40226
-3.41758
-3.43304
-3.4486
-3.46419
-3.47975
-3.49521
-3.51051
-3.5256
-3.54042
-3.55491
-3.56903
-3.58271
-3.59591
-3.60855
-3.6206
-3.632
-3.64273
-3.65271
-3.66194
-3.67034
-3.67789
-3.68456
-3.69033
-3.69518
-3.69908
-3.70202
-3.70398
-3.70495
-3.70493
-3.70394
-3.70197
-3.69903
-3.69512
-3.69026
-3.68447
-3.67777
-3.67019
-3.66177
-3.65255
-3.64255
-3.63181
-3.62039
-3.60832
-3.59565
-3.58245
-3.56877
-3.55463
-3.54013
-3.52531
-3.51021
-3.4949
-3.47944
-3.4639
-3.44833
-3.43278
-3.41731
-3.40198
-3.38687
-3.37203
-3.35752
-3.34341
-3.32973
-3.31657
-3.30392
-3.2919
-3.28053
-3.26983
-3.25992
-3.25075
-3.24244
-3.23498
-3.2284
-3.22275
-3.218
-3.21422
-3.2114
-3.20954
-3.20868
-3.20876
-3.20987
-3.21193
-3.21495
-3.21897
-3.22388
-3.22978
-3.23656
-3.24423
-3.25277
-3.26209
-3.27225
-3.28308
-3.29466
-3.30687
-3.31967
-3.33307
-3.34693
-3.36128
-3.37601
-3.39105
-3.40641
-3.42194
-3.43766
-3.45347
-3.46929
-3.48512
-3.50082
-3.51639
-3.53174
-3.54679
-3.56155
-3.57586
-3.58975
-3.60314
-3.61597
-3.62823
-3.63981
-3.65072
-3.66088
-3.67025
-3.67883
-3.68651
-3.69335
-3.69927
-3.70426
-3.70833
-3.7114
-3.71353
-3.71465
-3.71479
-3.71396
-3.71211
-3.70933
-3.70555
-3.70085
-3.69521
-3.68865
-3.68126
-3.67298
-3.66393
-3.65408
-3.64349
-3.63223
-3.62028
-3.60776
-3.59467
-3.58107
-3.56705
-3.5526
-3.53785
-3.52282
-3.50755
-3.49217
-3.47664
-3.46113
-3.44564
-3.43022
-3.41501
-3.39998
-3.38527
-3.37088
-3.35689
-3.34337
-3.33032
-3.31784
-3.30597
-3.29473
-3.28422
-3.27438
-3.2654
-3.25719
-3.24986
-3.24342
-3.23785
-3.23327
-3.22958
-3.22691
-3.22519
-3.22444
-3.22473
-3.22596
-3.22822
-3.23145
-3.23563
-3.2408
-3.24686
-3.25387
-3.26173
-3.27044
-3.28
-3.29031
-3.3014
-3.31319
-3.32562
-3.33872
-3.35235
-3.36654
-3.3812
-3.39623
-3.41164
-3.42731
-3.44323
-3.4593
-3.47548
-3.49174
-3.50795
-3.52414
-3.54017
-3.55601
-3.57166
-3.58672
-3.6028
-3.61352
-3.64005
-3.6164
-3.73106
-3.49069
-4.07811
-2.89019
-5.19313
-1.18658
-7.65164
1.82775
-10.9045
4.53503
-12.2752
3.69947
-8.93228
-1.95091
10.8109
3.81533
16.4473
0.455479
17.259
1.8123
14.5359
5.05514
11.5148
7.5082
9.80898
8.6211
9.20793
8.96758
9.08215
9.05857
9.08509
9.0959
9.11196
9.12701
9.14275
9.15868
9.17479
9.19106
9.20735
9.22368
9.23993
9.25609
9.27207
9.2878
9.30327
9.31834
9.33302
9.34726
9.36093
9.37407
9.38654
9.39838
9.4095
9.41983
9.42941
9.43813
9.446
9.45301
9.45909
9.46426
9.46846
9.47169
9.47397
9.47524
9.47555
9.47483
9.47315
9.47049
9.46683
9.46226
9.45671
9.45028
9.44297
9.43477
9.42579
9.41597
9.40547
9.39424
9.38237
9.3699
9.35685
9.34333
9.32934
9.31497
9.30027
9.28525
9.27006
9.25466
9.23918
9.22369
9.20818
9.1928
9.17754
9.16249
9.14773
9.13327
9.11923
9.10562
9.09252
9.08
9.06804
9.05677
9.04616
9.03632
9.02726
9.019
9.01161
9.00507
8.99942
8.99471
8.99091
8.98812
8.98628
8.98545
8.98559
8.98671
8.98883
8.99188
8.99595
9.00093
9.00687
9.01372
9.02142
9.02999
9.03935
9.04949
9.06038
9.07195
9.0842
9.09705
9.11046
9.12437
9.13869
9.15345
9.1685
9.18385
9.19942
9.2151
9.23093
9.24674
9.26254
9.27826
9.29379
9.30915
9.32421
9.33895
9.3533
9.36717
9.38058
9.3934
9.40561
9.4172
9.42804
9.43819
9.44751
9.45604
9.46372
9.47049
9.47642
9.48135
9.48539
9.48842
9.4905
9.49159
9.49168
9.49081
9.48893
9.4861
9.48232
9.47758
9.47194
9.46536
9.4579
9.4496
9.44044
9.43053
9.41986
9.4085
9.39649
9.38384
9.37068
9.35699
9.34288
9.32837
9.31353
9.29844
9.28312
9.26766
9.25209
9.2365
9.22094
9.20547
9.19017
9.17508
9.16025
9.14574
9.13162
9.11794
9.10475
9.09211
9.08007
9.06866
9.05794
9.04796
9.03874
9.03034
9.02279
9.01611
9.01033
9.00548
9.00157
8.99863
8.99667
8.9957
8.99571
8.99671
8.99868
9.00162
9.00554
9.0104
9.0162
9.02291
9.03048
9.0389
9.04812
9.05812
9.06885
9.08027
9.09234
9.10499
9.11819
9.13188
9.14601
9.16052
9.17535
9.19046
9.20577
9.22123
9.23677
9.25235
9.2679
9.28337
9.2987
9.31381
9.32865
9.34316
9.35727
9.37096
9.38412
9.39677
9.40879
9.42016
9.43085
9.44076
9.44993
9.45823
9.46569
9.47228
9.47793
9.48269
9.48647
9.4893
9.49116
9.49202
9.49194
9.49084
9.48877
9.48575
9.48173
9.47681
9.47091
9.46413
9.45645
9.44791
9.43859
9.42844
9.41761
9.40603
9.39382
9.38102
9.36761
9.35375
9.33939
9.32466
9.30962
9.29426
9.27873
9.26301
9.24721
9.23138
9.21555
9.19985
9.18428
9.16893
9.15388
9.13911
9.12481
9.11091
9.09753
9.08469
9.07243
9.06086
9.04995
9.03979
9.03043
9.02186
9.01418
9.00734
9.00141
8.99643
8.99235
8.98929
8.98715
8.98604
8.9859
8.98673
8.98859
8.99137
8.99515
8.99985
9.00549
9.01204
9.01943
9.02771
9.03676
9.0466
9.05719
9.06846
9.08042
9.09295
9.10604
9.11964
9.13367
9.14812
9.16287
9.1779
9.19316
9.20855
9.22407
9.23959
9.25508
9.27049
9.2857
9.30074
9.31545
9.32984
9.34383
9.35736
9.37041
9.38289
9.39477
9.40601
9.41652
9.42636
9.43534
9.44357
9.4509
9.45734
9.4629
9.46749
9.47116
9.47384
9.47555
9.47629
9.47601
9.47477
9.47251
9.46928
9.4651
9.45994
9.45388
9.44687
9.43901
9.4303
9.42074
9.41043
9.39934
9.38755
9.37511
9.36202
9.34839
9.33421
9.31955
9.30453
9.28911
9.27345
9.25754
9.24147
9.2253
9.20905
9.19284
9.17667
9.16065
9.14482
9.12919
9.11416
9.09812
9.08741
9.06094
9.08465
8.9702
9.21068
8.62398
9.81205
7.51138
11.5182
5.05858
14.5395
1.81581
17.2624
0.458549
16.4498
3.81699
10.8115
1.28286
-5.69996
6.92567
-9.04627
7.75283
-7.68005
5.04188
-4.43198
2.0272
-1.97672
0.32399
-0.863119
-0.276282
-0.516468
-0.401913
-0.425512
-0.398999
-0.38821
-0.372178
-0.357173
-0.341444
-0.32553
-0.309445
-0.293179
-0.276929
-0.26059
-0.244351
-0.228206
-0.212237
-0.196526
-0.181064
-0.166
-0.151331
-0.137098
-0.123441
-0.1103
-0.0978222
-0.0859936
-0.0748773
-0.0645403
-0.054962
-0.0462346
-0.0383658
-0.0313603
-0.0252881
-0.0201154
-0.0159216
-0.0126834
-0.0104097
-0.00914628
-0.00883719
-0.00955565
-0.0112466
-0.0139
-0.0175649
-0.0221368
-0.0276942
-0.0341222
-0.0414412
-0.0496379
-0.0586136
-0.0684274
-0.0789229
-0.0901537
-0.10202
-0.114486
-0.127552
-0.141062
-0.155059
-0.169433
-0.184129
-0.199154
-0.214349
-0.229752
-0.245236
-0.260734
-0.276249
-0.291632
-0.306899
-0.321946
-0.336705
-0.351167
-0.365201
-0.37881
-0.391906
-0.404431
-0.416389
-0.42766
-0.438272
-0.448116
-0.457174
-0.465444
-0.472836
-0.47938
-0.485027
-0.489737
-0.493534
-0.49632
-0.49816
-0.498993
-0.498848
-0.497739
-0.495605
-0.492566
-0.488495
-0.483521
-0.477576
-0.470726
-0.46303
-0.454462
-0.445104
-0.434958
-0.42407
-0.412496
-0.400243
-0.3874
-0.373992
-0.360077
-0.345754
-0.330998
-0.315947
-0.3006
-0.285032
-0.269345
-0.253521
-0.237705
-0.221903
-0.206182
-0.190655
-0.17529
-0.16024
-0.145507
-0.131152
-0.11729
-0.103882
-0.0910707
-0.0788613
-0.0672753
-0.0564403
-0.0462866
-0.0369623
-0.0284297
-0.0207493
-0.0139759
-0.00803909
-0.00311825
0.000921603
0.00395791
0.00603517
0.00712661
0.00721407
0.00634979
0.00447867
0.00165231
-0.00212288
-0.00686948
-0.0125101
-0.0190878
-0.0265483
-0.0348517
-0.0440122
-0.0539159
-0.0645902
-0.0759465
-0.0879553
-0.100596
-0.113764
-0.127456
-0.141571
-0.15608
-0.170916
-0.186015
-0.201334
-0.216803
-0.232369
-0.247963
-0.263523
-0.278986
-0.294294
-0.309391
-0.324221
-0.338727
-0.35285
-0.366528
-0.379715
-0.392359
-0.404408
-0.415812
-0.426534
-0.436526
-0.445738
-0.454136
-0.461687
-0.468363
-0.474137
-0.478989
-0.482891
-0.485827
-0.487784
-0.488756
-0.488745
-0.487755
-0.485787
-0.482845
-0.478935
-0.47407
-0.468275
-0.461575
-0.454003
-0.445592
-0.436373
-0.426371
-0.415638
-0.404214
-0.392146
-0.379488
-0.366289
-0.352601
-0.338465
-0.323953
-0.309118
-0.294013
-0.278701
-0.263242
-0.247695
-0.232119
-0.216564
-0.201098
-0.185761
-0.17065
-0.155805
-0.141297
-0.12719
-0.113504
-0.100346
-0.0876982
-0.0756774
-0.0643005
-0.0536059
-0.043702
-0.0345331
-0.0262288
-0.0187676
-0.0121828
-0.00652255
-0.00176869
0.00201683
0.00484157
0.00670199
0.00755272
0.00747162
0.0063699
0.00430896
0.0012885
-0.00272537
-0.00764359
-0.013547
-0.0203256
-0.0280044
-0.0365487
-0.0458689
-0.0560213
-0.066851
-0.0784268
-0.0906322
-0.103438
-0.116841
-0.130703
-0.145054
-0.159784
-0.174828
-0.190187
-0.205715
-0.221433
-0.237239
-0.253061
-0.268893
-0.284595
-0.300166
-0.315514
-0.330565
-0.345328
-0.359638
-0.373535
-0.386917
-0.399751
-0.412012
-0.423588
-0.434499
-0.444653
-0.454015
-0.462588
-0.470271
-0.477105
-0.48303
-0.488015
-0.492091
-0.495153
-0.497287
-0.498405
-0.498544
-0.497708
-0.495853
-0.493074
-0.489287
-0.484587
-0.478951
-0.472402
-0.465009
-0.456733
-0.447677
-0.437828
-0.427234
-0.415963
-0.404008
-0.391479
-0.378391
-0.364787
-0.350766
-0.336319
-0.321567
-0.306534
-0.291277
-0.275889
-0.260362
-0.244847
-0.229347
-0.213933
-0.198718
-0.183682
-0.168966
-0.154575
-0.14058
-0.127049
-0.114002
-0.10152
-0.0896395
-0.0783895
-0.0678895
-0.0580456
-0.0490692
-0.0408483
-0.0335178
-0.0270729
-0.0215087
-0.0169217
-0.0132346
-0.0105575
-0.00884148
-0.00809962
-0.00837891
-0.00961697
-0.0118718
-0.0150962
-0.0192756
-0.0244363
-0.0304967
-0.0375004
-0.0453603
-0.0540694
-0.0636298
-0.0739407
-0.0850282
-0.0968215
-0.109259
-0.122353
-0.135975
-0.150151
-0.164805
-0.179817
-0.195232
-0.210883
-0.226788
-0.242853
-0.25902
-0.275268
-0.291462
-0.307629
-0.323634
-0.339461
-0.355078
-0.370071
-0.386094
-0.396784
-0.423238
-0.399535
-0.514009
-0.273719
-0.860449
0.326778
-1.97385
2.03021
-4.429
5.04498
-7.67716
7.75571
-9.04386
6.92767
-5.6987
1.28331
7.75362
0.766643
13.3891
-2.58781
14.2051
-1.22984
11.4866
2.01226
8.46846
4.46433
6.76386
5.57659
6.16303
5.92271
6.03714
6.01348
6.03994
6.05068
6.06667
6.08166
6.09737
6.11325
6.12931
6.14556
6.16179
6.17812
6.19433
6.21047
6.22643
6.24213
6.25758
6.27264
6.2873
6.30153
6.31518
6.32832
6.34079
6.35261
6.36373
6.37407
6.38365
6.39237
6.40024
6.40724
6.41331
6.41849
6.42268
6.42591
6.42818
6.42945
6.42976
6.42904
6.42735
6.42469
6.42103
6.41646
6.4109
6.40447
6.39715
6.38895
6.37997
6.37016
6.35966
6.34843
6.33656
6.32409
6.31102
6.29751
6.28351
6.26913
6.25443
6.2394
6.2242
6.2088
6.19332
6.17783
6.16232
6.14694
6.13167
6.11662
6.10187
6.0874
6.07337
6.05976
6.04665
6.03412
6.02216
6.01089
6.00028
5.99043
5.98138
5.97311
5.96571
5.95917
5.95351
5.94881
5.94501
5.94223
5.94038
5.93955
5.93969
5.9408
5.94293
5.94597
5.95004
5.95502
5.96096
5.96781
5.97551
5.98407
5.99343
6.00357
6.01446
6.02603
6.03829
6.05113
6.06454
6.07846
6.09278
6.10753
6.12258
6.13793
6.1535
6.16919
6.18501
6.20082
6.21662
6.23234
6.24787
6.26324
6.27829
6.29303
6.30738
6.32125
6.33466
6.34747
6.35968
6.37127
6.38211
6.39227
6.40159
6.41012
6.4178
6.42457
6.43051
6.43543
6.43948
6.44251
6.44459
6.44568
6.44576
6.44489
6.44302
6.4402
6.43642
6.43167
6.42603
6.41945
6.41198
6.40367
6.39452
6.38461
6.37394
6.36258
6.35057
6.33793
6.32477
6.31107
6.29696
6.28246
6.26763
6.25253
6.23721
6.22174
6.20617
6.19058
6.17502
6.15955
6.14423
6.12913
6.11429
6.09978
6.08566
6.07198
6.05879
6.04615
6.0341
6.0227
6.01198
6.00199
5.99278
5.98438
5.97683
5.97015
5.96437
5.95952
5.95562
5.95268
5.95072
5.94975
5.94975
5.95074
5.95271
5.95566
5.95957
5.96444
5.97023
5.97693
5.9845
5.99291
6.00213
6.01213
6.02287
6.03428
6.04635
6.059
6.0722
6.08589
6.10003