/*--------------------------------*- C++ -*----------------------------------*\
| =========                 |                                                 |
| \\      /  F ield         | OpenFOAM: The Open Source CFD Toolbox           |
|  \\    /   O peration     | Version:  2106                                  |
|   \\  /    A nd           | Website:  www.openfoam.com                      |
|    \\/     M anipulation  |                                                 |
\*---------------------------------------------------------------------------*/
FoamFile
{
    version     2.0;
    format      ascii;
    arch        "LSB;label=32;scalar=64";
    class       surfaceScalarField;
    location    "0.003";
    object      phi;
}
// * * * * * * * * * * * * * * * * * * * * * * * * * * * * * * * * * * * * * //

dimensions      [0 3 -1 0 0 0 0];

oriented        oriented;

internalField   nonuniform List<scalar> 
319200
(
5.84623e-06
-3.12857e-06
0.000447833
-0.000460634
-5.29026e-06
0.000453215
0.000106711
-0.000111312
-3.90503e-06
0.000111347
2.31352e-05
-2.64347e-05
-3.57846e-06
2.71441e-05
2.7156e-06
-5.86021e-06
-3.22759e-06
6.15454e-06
-1.88835e-06
-1.06029e-06
-2.84604e-06
1.02038e-06
-2.41202e-06
-1.25777e-07
-2.3121e-06
-1.08473e-07
-2.06082e-06
-1.63683e-07
-1.75358e-06
-1.97295e-07
-1.54539e-06
-2.82739e-07
-1.24155e-06
-1.65129e-07
-1.16378e-06
4.66151e-08
-1.03467e-06
-2.87082e-07
-1.18803e-06
2.76148e-07
-1.20024e-06
2.18356e-07
-1.19926e-06
-8.12574e-08
-1.30554e-06
1.87031e-07
-1.2915e-06
1.37877e-07
-1.10591e-06
-6.85606e-08
-7.72386e-07
-3.71177e-07
-6.96453e-07
1.25205e-09
-4.71604e-07
6.31589e-08
-1.90062e-07
-5.44011e-07
-1.12711e-07
-8.54713e-09
-1.87044e-07
4.51764e-07
-1.5676e-07
-1.98003e-07
-1.95087e-07
-2.48597e-08
-2.31434e-07
2.11372e-07
-2.5397e-07
6.9819e-08
-2.01543e-07
7.53067e-08
3.37871e-08
-2.67752e-07
2.94084e-07
-4.57835e-07
2.93295e-07
6.53794e-08
3.12526e-07
1.44509e-07
5.50905e-07
-2.39508e-07
7.52904e-07
-3.32616e-07
7.72686e-07
-1.69255e-07
5.54223e-07
2.6973e-07
3.47383e-07
4.47546e-07
4.44406e-07
-1.09879e-07
6.18892e-07
-4.63824e-07
7.43147e-07
-2.01984e-07
9.01966e-07
-4.99457e-08
9.91849e-07
-1.28523e-07
9.77011e-07
1.22572e-07
1.07202e-06
1.49001e-07
1.36223e-06
-4.26357e-07
1.48238e-06
-5.27637e-07
1.26142e-06
1.64534e-07
9.60514e-07
6.47468e-07
7.51293e-07
4.41885e-07
5.54236e-07
2.51901e-07
4.66474e-07
1.11833e-07
5.80535e-07
-2.33639e-07
8.35347e-07
-4.59014e-07
9.93089e-07
-2.12997e-07
1.07456e-06
7.11061e-08
1.02241e-06
2.10223e-07
8.37989e-07
3.81719e-07
6.56546e-07
4.96441e-07
5.58267e-07
2.26631e-07
6.51962e-07
-3.00603e-07
7.03548e-07
-2.85983e-07
6.33557e-07
5.13094e-10
6.42244e-07
-9.75494e-08
7.55533e-07
-4.03268e-07
8.74845e-07
-3.9443e-07
8.55117e-07
4.29906e-08
8.2562e-07
2.32324e-07
9.89353e-07
-9.59644e-09
1.14155e-06
-1.27577e-07
1.24247e-06
-2.41013e-08
1.17697e-06
2.04359e-07
1.0866e-06
1.66662e-07
9.71829e-07
7.03887e-08
7.69918e-07
2.4584e-07
6.55065e-07
2.85155e-07
6.58892e-07
9.91136e-08
8.3537e-07
-2.81052e-07
1.05861e-06
-4.01164e-07
1.13937e-06
-1.35317e-07
1.26044e-06
-2.37576e-09
1.40945e-06
-5.86893e-08
1.60899e-06
-2.61634e-07
1.67288e-06
-2.51654e-07
1.51522e-06
1.00833e-07
1.29844e-06
2.89878e-07
1.08606e-06
2.58565e-07
9.82455e-07
5.81657e-08
9.41081e-07
-1.7012e-09
8.45923e-07
1.71772e-07
8.11439e-07
1.55301e-07
8.43314e-07
9.20857e-10
9.94089e-07
-2.30558e-07
1.09001e-06
-2.16124e-07
1.02534e-06
3.9162e-08
9.15339e-07
2.19923e-07
7.79005e-07
2.79292e-07
8.37959e-07
-2.42823e-08
9.36804e-07
-1.70844e-07
9.92828e-07
-1.34082e-07
9.57618e-07
5.13058e-08
7.65876e-07
2.43344e-07
6.48192e-07
1.53081e-07
5.7808e-07
1.26261e-08
5.54433e-07
-1.1201e-07
5.70644e-07
-9.79851e-08
5.78518e-07
6.95473e-08
6.73108e-07
8.08813e-08
8.47619e-07
-3.71302e-08
1.0937e-06
-2.72246e-07
1.45635e-06
-4.79163e-07
1.64219e-06
-3.24508e-07
1.77121e-06
-1.57313e-07
1.72e-06
8.82926e-08
1.66771e-06
1.37516e-07
1.7596e-06
-4.6781e-08
1.87992e-06
-1.80276e-07
2.16416e-06
-4.09903e-07
2.40619e-06
-3.5493e-07
2.59135e-06
-1.88392e-07
2.7677e-06
-6.73074e-08
2.83806e-06
7.01188e-08
3.02102e-06
-8.95057e-08
3.20694e-06
-1.87669e-07
3.38746e-06
-2.84423e-07
3.51841e-06
-2.70616e-07
3.46823e-06
-2.79368e-08
3.33216e-06
1.73995e-07
3.04214e-06
4.16745e-07
2.65403e-06
5.06286e-07
2.29989e-06
4.03406e-07
1.88098e-06
4.01459e-07
1.62465e-06
1.82743e-07
1.34963e-06
1.62686e-07
1.15492e-06
1.07227e-07
1.00508e-06
1.40352e-07
8.48604e-07
2.52037e-07
7.56704e-07
2.45227e-07
5.29512e-07
3.60989e-07
3.56009e-07
2.46827e-07
1.11221e-07
2.49335e-07
-1.17354e-07
1.57753e-07
-3.1901e-07
6.60553e-08
-5.05287e-07
3.24944e-08
-5.63484e-07
-4.02637e-08
-5.86012e-07
2.43746e-08
-5.65707e-07
7.25594e-08
-4.95303e-07
6.61815e-08
-4.69675e-07
1.39981e-07
-3.76405e-07
6.99841e-08
-3.15384e-07
5.79537e-08
-2.49483e-07
-2.93869e-08
-1.75082e-07
-1.18423e-07
-1.10618e-07
-1.72837e-07
-6.30546e-08
-1.95418e-07
-7.04778e-08
-1.63371e-07
-1.48687e-07
-1.06956e-07
-2.40416e-07
-5.98898e-08
-3.62571e-07
3.46434e-08
-4.29379e-07
5.30862e-08
-5.13415e-07
9.38908e-08
-6.0133e-07
1.0591e-07
-6.69743e-07
9.55628e-08
-7.56553e-07
1.51385e-07
-8.49593e-07
1.88892e-07
-9.63399e-07
2.13258e-07
-1.08884e-06
2.01414e-07
-1.19706e-06
1.61103e-07
-1.26458e-06
1.14531e-07
-1.28315e-06
6.45162e-08
-1.25393e-06
2.40326e-09
-1.17684e-06
-7.26076e-08
-1.04154e-06
-1.4674e-07
-8.48918e-07
-2.04061e-07
-6.09288e-07
-2.39011e-07
-3.5037e-07
-2.56033e-07
-1.06292e-07
-2.4979e-07
1.02323e-07
-2.2695e-07
2.41956e-07
-1.60946e-07
2.78602e-07
-5.48202e-08
1.99062e-07
6.45291e-08
4.47995e-09
1.785e-07
-2.60409e-07
2.51993e-07
-5.62235e-07
2.95318e-07
-8.6679e-07
3.02947e-07
-1.13249e-06
2.68477e-07
-1.33013e-06
2.0359e-07
-1.43208e-06
1.08325e-07
-1.41694e-06
-7.79209e-09
-1.27468e-06
-1.35455e-07
-1.01061e-06
-2.58815e-07
-6.51191e-07
-3.60144e-07
-2.41434e-07
-4.16534e-07
1.60804e-07
-4.18281e-07
5.05173e-07
-3.65166e-07
7.52985e-07
-2.72399e-07
8.8626e-07
-1.56926e-07
9.01265e-07
-3.57779e-08
8.02135e-07
8.35631e-08
5.93053e-07
1.9399e-07
2.93038e-07
2.85294e-07
-6.57293e-08
3.49513e-07
-4.47341e-07
3.85217e-07
-7.86204e-07
3.49178e-07
-1.04017e-06
2.62947e-07
-1.17749e-06
1.41766e-07
-1.19744e-06
2.24053e-08
-1.12001e-06
-7.45664e-08
-9.76161e-07
-1.4343e-07
-7.95535e-07
-1.91225e-07
-6.00352e-07
-2.15541e-07
-4.06857e-07
-2.11191e-07
-2.46731e-07
-1.64382e-07
-1.55851e-07
-8.82871e-08
-1.57676e-07
-6.69708e-09
-2.43597e-07
6.1926e-08
-3.77003e-07
1.12677e-07
-5.17475e-07
1.40427e-07
-6.40152e-07
1.31994e-07
-7.31634e-07
9.17219e-08
-7.8534e-07
3.87336e-08
-7.93528e-07
-8.68173e-10
-7.63611e-07
-4.66111e-09
-6.87111e-07
-2.24271e-08
-6.24882e-07
-1.41707e-08
-5.74883e-07
-3.43242e-08
-5.36672e-07
-3.1986e-08
-5.92012e-07
7.71616e-08
-6.42531e-07
1.00913e-07
-7.50579e-07
1.48136e-07
-8.42361e-07
1.08562e-07
-8.55138e-07
1.23274e-08
-8.6531e-07
-3.45095e-09
-7.79033e-07
-1.05424e-07
-6.95941e-07
-1.30162e-07
-5.9197e-07
-1.59602e-07
-4.42706e-07
-1.9183e-07
-3.43168e-07
-1.14317e-07
-2.60498e-07
-7.84055e-08
-2.80956e-07
3.16271e-08
-4.05976e-07
1.59761e-07
-5.9657e-07
2.56361e-07
-9.23294e-07
3.95196e-07
-1.22063e-06
3.29318e-07
-1.53359e-06
2.98775e-07
-1.76136e-06
1.93098e-07
-1.85714e-06
5.96206e-08
-1.88893e-06
3.83859e-09
-1.76534e-06
-1.50833e-07
-1.64362e-06
-1.20213e-07
-1.55575e-06
-4.70291e-08
-1.57016e-06
6.28602e-08
-1.7083e-06
1.59037e-07
-1.86797e-06
1.52988e-07
-2.11343e-06
2.26837e-07
-2.28733e-06
1.56367e-07
-2.49443e-06
1.71211e-07
-2.66512e-06
1.33897e-07
-2.74524e-06
8.64755e-08
-2.7697e-06
7.93953e-08
-2.62785e-06
-7.5231e-08
-2.42352e-06
-1.84881e-07
-2.17444e-06
-2.82287e-07
-1.89586e-06
-3.47307e-07
-1.71906e-06
-2.4046e-07
-1.52145e-06
-2.40288e-07
-1.40801e-06
-1.03285e-07
-1.31332e-06
-4.18104e-08
-1.18921e-06
-8.23785e-08
-1.08603e-06
-1.00691e-07
-8.99081e-07
-2.24217e-07
-7.69527e-07
-1.67424e-07
-6.73438e-07
-1.13513e-07
-5.41173e-07
-1.25098e-07
-3.74462e-07
-1.37942e-07
-4.71939e-08
-2.7333e-07
3.69501e-07
-3.9628e-07
7.84136e-07
-4.67243e-07
1.17232e-06
-4.42891e-07
1.37308e-06
-2.05611e-07
1.51536e-06
-8.33753e-08
1.52317e-06
4.42303e-08
1.46474e-06
6.94085e-08
1.42607e-06
2.03898e-08
1.28812e-06
1.2827e-07
1.21626e-06
5.84053e-08
1.1124e-06
1.05686e-07
1.03822e-06
6.50946e-08
1.05276e-06
-3.81718e-08
1.01604e-06
-1.10589e-08
1.04978e-06
-4.42223e-08
1.00839e-06
6.47346e-08
9.78375e-07
5.05632e-08
9.703e-07
3.45553e-09
9.43692e-07
-1.49253e-08
9.102e-07
-2.73781e-08
7.08939e-07
1.3747e-07
5.2811e-07
1.87598e-07
3.1497e-07
2.36356e-07
1.88503e-07
1.28701e-07
1.25849e-07
3.89776e-08
1.20315e-07
4.25988e-08
1.95677e-07
8.21418e-09
3.83775e-07
-1.7517e-07
6.93992e-07
-3.82001e-07
1.06676e-06
-4.22094e-07
1.28411e-06
-1.71634e-07
1.46224e-06
-7.90331e-08
1.47228e-06
6.25575e-09
1.38879e-06
1.49036e-08
1.20358e-06
1.02089e-07
8.43445e-07
3.58832e-07
5.48036e-07
3.71673e-07
2.95754e-07
2.74332e-07
1.43847e-07
1.57935e-07
4.95093e-09
1.8454e-07
-4.78949e-08
1.41386e-07
-4.80824e-08
2.72287e-08
-8.94868e-09
-6.00904e-08
-2.56188e-08
5.84427e-08
-5.67002e-08
1.80173e-07
2.2023e-08
9.02519e-08
1.43389e-07
-1.20009e-07
2.9997e-07
-2.3081e-07
3.71492e-07
-8.92154e-08
4.09475e-07
-3.97082e-08
3.94579e-07
-1.11765e-07
3.26632e-07
-1.05177e-07
1.5634e-07
9.98185e-08
-2.7122e-08
1.86608e-07
-1.83898e-07
1.32766e-07
-2.99335e-07
1.73544e-07
-3.4417e-07
1.59179e-07
-3.83855e-07
1.00363e-07
-5.33916e-07
9.92416e-08
-8.154e-07
2.60983e-07
-1.18883e-06
2.93348e-07
-1.45357e-06
1.5366e-07
-1.70275e-06
3.53612e-07
-1.87371e-06
4.42146e-07
-1.94114e-06
1.22196e-07
-1.73639e-06
-3.15793e-07
-1.46118e-06
-2.55141e-07
-1.26247e-06
-7.09511e-08
-9.95367e-07
-2.56024e-07
-7.54443e-07
-1.95316e-07
-6.57514e-07
5.2968e-08
-6.34072e-07
-2.42813e-08
-6.82895e-07
-7.42164e-08
-8.54998e-07
2.0539e-07
-1.14612e-06
4.1755e-07
-1.32927e-06
2.00815e-07
-1.31042e-06
4.04137e-08
-1.26275e-06
-5.52001e-08
-1.2111e-06
-4.56462e-08
-1.23171e-06
1.51043e-07
-1.16709e-06
-5.78703e-08
-9.04206e-07
-3.26349e-07
-7.66512e-07
-6.91584e-08
-7.56276e-07
-1.17284e-07
-7.46526e-07
-2.46126e-08
-8.09429e-07
1.75003e-07
-7.38726e-07
-1.92596e-07
-6.59407e-07
-1.34378e-07
-6.46516e-07
1.41198e-07
-4.68615e-07
-2.943e-07
-2.92301e-07
-2.98887e-07
-2.71908e-07
1.12759e-07
-2.30982e-07
-1.3764e-07
-2.39758e-07
-3.45185e-08
-4.08635e-07
1.62187e-07
-4.91414e-07
1.27727e-07
-6.16048e-07
1.36044e-07
-6.48642e-07
-4.49943e-08
-5.73205e-07
7.6316e-08
-3.84437e-07
-8.7767e-08
-1.04048e-07
-3.24234e-07
1.07554e-07
-4.32474e-08
3.51813e-07
-1.88808e-07
5.35213e-07
-1.12484e-07
3.61055e-07
3.32695e-07
5.01698e-07
-1.04018e-07
-8.80338e-07
1.42445e-06
4.70642e-08
-6.93099e-07
-6.32822e-06
6.33609e-06
-6.87238e-07
-5.37094e-06
-2.80427e-05
2.73037e-05
-2.01409e-06
-2.59141e-05
-0.000113786
0.000111569
-3.55686e-06
-0.000110555
-0.00045797
0.000453682
-5.65432e-06
-0.000455255
-2.51235e-06
-0.0004566
0.000450708
-0.000458998
-0.000458206
-0.000141768
0.000135962
-0.000111843
-0.000141219
-4.52916e-05
4.47891e-05
-2.80928e-05
-4.36219e-05
-1.41299e-05
1.31699e-05
-7.31396e-06
-1.26699e-05
-4.29373e-06
3.12904e-06
-2.12792e-06
-3.23004e-06
-1.43682e-06
3.36121e-07
-8.85044e-07
-6.8086e-07
-7.76845e-07
-2.21184e-07
-7.03638e-07
-2.36325e-07
-6.81146e-07
-2.10678e-07
-7.5414e-07
-2.15838e-07
-7.69759e-07
-1.5669e-07
-7.46337e-07
3.33679e-08
-7.93106e-07
-2.388e-07
-6.88868e-07
1.64014e-07
-6.04609e-07
1.32838e-07
-6.0292e-07
-7.80403e-08
-5.42037e-07
1.3034e-07
-5.00676e-07
9.1529e-08
-5.55417e-07
-2.1288e-08
-6.02698e-07
-3.18432e-07
-6.49454e-07
5.87113e-08
-6.48861e-07
5.8577e-08
-8.34596e-07
-3.71427e-07
-8.13852e-07
-2.98983e-08
-6.35078e-07
2.84926e-07
-7.10987e-07
-1.15508e-07
-6.6735e-07
-7.35222e-08
-4.49912e-07
-1.50589e-08
-3.13886e-07
-7.15228e-08
-2.11196e-07
-2.44194e-08
-2.23657e-07
-2.44431e-07
-1.84084e-07
-4.88471e-07
-9.7288e-08
-2.48141e-08
-7.91924e-08
1.1396e-07
-1.82254e-07
-1.4526e-07
-2.71656e-07
-2.42801e-07
-3.45048e-07
-9.0461e-08
-2.82156e-07
2.14172e-07
-2.16041e-07
3.91956e-07
-2.97608e-07
-1.70328e-08
-4.56427e-07
-3.01089e-07
-4.66822e-07
-1.99572e-07
-4.08249e-07
-1.23454e-07
-4.50548e-07
-1.0016e-07
-4.77027e-07
1.38409e-07
-4.72174e-07
1.34338e-07
-5.68455e-07
-3.39624e-07
-6.23363e-07
-4.79169e-07
-5.62285e-07
1.01816e-07
-3.6447e-07
4.50611e-07
-2.10539e-07
2.8828e-07
-1.08018e-07
1.48586e-07
-7.94725e-08
8.31991e-08
-1.3164e-07
-1.79973e-07
-1.66577e-07
-4.22394e-07
-1.37033e-07
-2.4233e-07
-1.34372e-07
6.75209e-08
-1.47001e-07
2.22587e-07
-1.25073e-07
3.61036e-07
-4.38853e-08
4.16889e-07
-2.23131e-08
2.05503e-07
-1.34874e-07
-1.88892e-07
-2.26894e-07
-1.94732e-07
-2.09089e-07
-1.68044e-08
-1.77972e-07
-1.2717e-07
-2.00074e-07
-3.79869e-07
-2.1039e-07
-3.83834e-07
-1.55032e-07
-1.28124e-08
-7.99727e-08
1.57037e-07
-4.63769e-08
-4.26399e-08
2.96599e-08
-2.02602e-07
8.64439e-08
-8.01903e-08
1.34776e-07
1.56016e-07
1.08817e-07
1.9227e-07
9.50009e-08
8.41961e-08
1.63016e-07
1.78413e-07
2.68531e-07
1.80427e-07
2.62774e-07
1.0527e-07
1.30383e-07
-1.48821e-07
-1.15187e-08
-2.596e-07
-6.47896e-08
-8.20282e-08
-7.80025e-08
1.14094e-08
-7.45362e-08
-6.12986e-08
-7.11597e-08
-2.64352e-07
-6.99414e-08
-2.5273e-07
-1.02857e-09
3.16345e-08
3.51964e-08
2.53374e-07
8.36238e-08
2.10321e-07
1.10748e-07
3.18335e-08
1.94373e-07
-8.42055e-08
2.93593e-07
7.3485e-08
3.7428e-07
7.49602e-08
3.24272e-07
5.06706e-08
2.03749e-07
-1.1055e-07
9.86328e-08
-1.11328e-07
6.66697e-08
7.12642e-08
9.35356e-08
1.93613e-07
1.28423e-07
2.45132e-07
1.36759e-07
-3.19872e-08
1.40707e-07
-1.7441e-07
1.81085e-07
-1.74339e-07
2.66315e-07
-3.39796e-08
3.05885e-07
2.03661e-07
3.09607e-07
1.49293e-07
2.49006e-07
7.32728e-08
1.92087e-07
-5.49205e-08
1.79912e-07
-8.55304e-08
1.9746e-07
5.23731e-08
2.18303e-07
6.05089e-08
1.99481e-07
-1.77268e-08
1.372e-07
-2.09285e-07
6.46264e-08
-4.05893e-07
4.67935e-08
-3.06109e-07
8.25691e-08
-1.92805e-07
1.62279e-07
8.50636e-09
2.21138e-07
7.82716e-08
2.24465e-07
-5.0626e-08
1.81566e-07
-1.37797e-07
1.02507e-07
-3.30972e-07
3.13192e-08
-2.83483e-07
-7.31661e-09
-1.49134e-07
-6.92993e-08
-4.46125e-09
-8.86997e-08
9.04556e-08
-1.83623e-07
6.25961e-09
-2.75997e-07
-9.46672e-08
-3.66707e-07
-1.93359e-07
-4.21909e-07
-2.15349e-07
-3.97715e-07
-5.23198e-08
-3.30009e-07
1.0593e-07
-2.03005e-07
2.8933e-07
-7.6835e-08
3.79793e-07
-2.63652e-08
3.52826e-07
4.071e-08
3.3457e-07
2.82048e-08
1.95749e-07
3.37663e-08
1.57899e-07
2.0919e-08
1.2103e-07
6.21964e-09
1.56069e-07
8.76323e-09
2.50452e-07
-6.81165e-09
2.61596e-07
2.37216e-08
3.31015e-07
2.72748e-08
2.43562e-07
6.35579e-08
2.13068e-07
9.01488e-08
1.30934e-07
1.21733e-07
3.40532e-08
1.31873e-07
2.18194e-08
1.28911e-07
-3.78657e-08
1.12406e-07
4.03778e-08
1.00061e-07
8.45587e-08
6.55358e-08
1.00596e-07
5.4189e-08
1.51515e-07
3.05197e-08
9.41677e-08
2.58605e-08
6.34465e-08
2.99331e-08
-3.23527e-08
1.97888e-08
-1.06977e-07
1.20365e-08
-1.63692e-07
-1.08785e-08
-1.71138e-07
-2.65464e-08
-1.46484e-07
-4.12104e-08
-9.13193e-08
-5.94931e-08
-4.09629e-08
-6.06884e-08
3.6103e-08
-6.6143e-08
5.84094e-08
-5.71228e-08
8.43635e-08
-3.85512e-08
8.65085e-08
-1.9259e-08
7.51985e-08
3.0516e-08
1.00393e-07
9.01143e-08
1.28039e-07
1.50348e-07
1.51844e-07
1.91057e-07
1.59708e-07
2.03271e-07
1.48169e-07
1.91587e-07
1.25843e-07
1.69598e-07
8.65364e-08
1.48465e-07
2.39947e-08
1.30313e-07
-5.35706e-08
1.15112e-07
-1.30252e-07
1.02776e-07
-1.90083e-07
9.31747e-08
-2.27474e-07
8.03322e-08
-2.41037e-07
5.69168e-08
-2.24081e-07
1.68942e-08
-1.84578e-07
-2.70625e-08
-1.14662e-07
-5.42339e-08
-2.54158e-08
-4.80401e-08
6.04134e-08
-5.19204e-10
1.32853e-07
8.18235e-08
1.71284e-07
1.80591e-07
1.9792e-07
2.72732e-07
2.11902e-07
3.51565e-07
1.90467e-07
4.04732e-07
1.50985e-07
4.23619e-07
8.97622e-08
4.06179e-07
9.76246e-09
3.59074e-07
-8.84131e-08
3.053e-07
-2.05246e-07
2.60153e-07
-3.15306e-07
2.29385e-07
-3.86137e-07
2.01729e-07
-3.91014e-07
1.68988e-07
-3.32786e-07
1.29426e-07
-2.33126e-07
9.31711e-08
-1.20837e-07
7.03507e-08
-1.29567e-08
6.95465e-08
8.4575e-08
9.53965e-08
1.68591e-07
1.49194e-07
2.32223e-07
2.28961e-07
2.70773e-07
3.34914e-07
2.80602e-07
4.40239e-07
2.45505e-07
5.14028e-07
1.91112e-07
5.43335e-07
1.14685e-07
5.31268e-07
3.69274e-08
4.9889e-07
-3.95644e-08
4.64229e-07
-1.06049e-07
4.33456e-07
-1.57726e-07
4.05859e-07
-1.85306e-07
3.86902e-07
-1.89785e-07
3.81088e-07
-1.56403e-07
3.86637e-07
-9.20448e-08
3.92821e-07
-1.15322e-08
3.89765e-07
6.58404e-08
3.83069e-07
1.19722e-07
3.87639e-07
1.35705e-07
4.0922e-07
1.098e-07
4.402e-07
5.97415e-08
4.67459e-07
1.01808e-08
4.92828e-07
-2.771e-08
5.07494e-07
-2.08517e-08
5.23681e-07
-4.00662e-08
5.08419e-07
-1.71254e-10
4.70006e-07
3.11614e-09
4.52793e-07
-1.53784e-08
4.20014e-07
1.09752e-07
4.5431e-07
6.68658e-08
4.64215e-07
1.38901e-07
4.65742e-07
1.0808e-07
4.81462e-07
-2.04032e-09
4.533e-07
2.62735e-08
4.71435e-07
-1.21892e-07
4.51438e-07
-1.0852e-07
4.26718e-07
-1.33386e-07
4.17464e-07
-1.81349e-07
3.7468e-07
-7.0677e-08
3.61437e-07
-6.47505e-08
3.27439e-07
6.5564e-08
3.062e-07
1.80487e-07
3.43729e-07
2.17949e-07
3.83484e-07
3.54319e-07
4.65133e-07
2.46485e-07
5.11002e-07
2.5186e-07
5.4013e-07
1.63253e-07
5.64769e-07
3.47514e-08
5.36989e-07
3.1957e-08
5.01487e-07
-1.14433e-07
4.39196e-07
-5.65677e-08
4.07661e-07
-1.3867e-08
3.89215e-07
8.29658e-08
3.62647e-07
1.8705e-07
3.49714e-07
1.66946e-07
3.61002e-07
2.16038e-07
4.15756e-07
1.01552e-07
4.90492e-07
9.59579e-08
5.6104e-07
6.25507e-08
6.21114e-07
2.5543e-08
6.39372e-07
6.04297e-08
6.25043e-07
-6.12926e-08
5.50283e-07
-1.10094e-07
4.53442e-07
-1.8498e-07
3.63369e-07
-2.56381e-07
3.07135e-07
-1.83093e-07
2.67266e-07
-1.9916e-07
2.39006e-07
-7.3825e-08
2.18842e-07
-2.06957e-08
1.93194e-07
-5.6198e-08
1.75787e-07
-8.3277e-08
1.58547e-07
-2.07498e-07
1.83614e-07
-1.93412e-07
2.08063e-07
-1.39032e-07
2.22563e-07
-1.40486e-07
1.76501e-07
-9.22617e-08
1.27416e-07
-2.23907e-07
3.4467e-08
-3.02258e-07
-6.85897e-08
-3.62593e-07
-1.66833e-07
-3.42928e-07
-2.09586e-07
-1.6146e-07
-2.09122e-07
-8.31165e-08
-1.95177e-07
3.02084e-08
-1.78359e-07
5.18699e-08
-1.56149e-07
-2.81506e-09
-9.01495e-08
6.14395e-08
-6.38195e-08
3.17464e-08
-5.6295e-08
9.8455e-08
-8.2508e-08
9.21093e-08
-1.22911e-07
3.27443e-09
-1.3734e-07
4.35783e-09
-1.28601e-07
-5.22551e-08
-1.06772e-07
4.32169e-08
-1.0533e-07
4.90359e-08
-1.38221e-07
3.59474e-08
-1.83684e-07
2.99877e-08
-1.97937e-07
-1.35928e-08
-2.08531e-07
1.47944e-07
-1.69537e-07
1.49038e-07
-1.16489e-07
1.84322e-07
-4.99244e-08
6.34932e-08
-2.69449e-09
-7.00236e-09
5.28286e-08
-1.22473e-08
5.52748e-08
5.66172e-09
-2.25756e-08
-9.80009e-08
-1.7036e-07
-2.34929e-07
-2.57965e-07
-3.34669e-07
-2.61828e-07
-1.67197e-07
-2.67407e-07
-7.23904e-08
-3.24143e-07
6.39867e-08
-4.15509e-07
1.06715e-07
-4.35182e-07
1.21576e-07
-4.02026e-07
3.25189e-07
-3.04427e-07
2.73771e-07
-2.40234e-07
2.10323e-07
-1.82859e-07
1.01185e-07
-1.1294e-07
1.1541e-07
-9.40962e-08
1.23203e-07
-9.03908e-08
2.38843e-08
-8.22036e-08
-6.82439e-08
-1.16221e-08
-1.2314e-08
3.72063e-08
1.31239e-07
3.15194e-08
9.62776e-08
-5.58329e-08
-3.16516e-08
-1.57885e-07
-1.27324e-07
-2.19724e-07
-2.62211e-08
-2.53879e-07
-5.38424e-09
-3.38082e-07
-2.84234e-08
-3.68934e-07
-7.54108e-08
-3.268e-07
5.74085e-08
-2.9202e-07
1.52675e-07
-2.85719e-07
1.27704e-07
-3.24375e-07
2.1272e-07
-3.1146e-07
1.45545e-07
-3.12614e-07
9.98714e-08
-2.68913e-07
5.35078e-08
-1.68304e-07
1.58098e-07
-1.34251e-07
2.56497e-07
-9.24939e-08
1.08267e-07
7.89977e-08
1.77477e-07
1.81775e-07
3.33709e-07
7.61037e-08
2.21564e-07
-9.27228e-08
-1.52934e-07
-1.36635e-07
-2.15854e-07
-1.50638e-07
-6.02959e-08
-2.46447e-07
-1.63377e-07
-2.75741e-07
-1.69373e-07
-2.59294e-07
3.44673e-08
-3.20088e-07
3.74696e-08
-4.20792e-07
2.98206e-08
-3.45305e-07
1.32949e-07
-2.94635e-07
3.67946e-07
-3.63516e-07
2.69456e-07
-4.35622e-07
1.12142e-07
-4.69802e-07
-2.15313e-08
-4.00741e-07
-1.15561e-07
-3.21934e-07
7.16831e-08
-3.07219e-07
-7.2276e-08
-2.5452e-07
-3.78218e-07
-1.21228e-07
-2.01766e-07
-1.00966e-07
-1.37639e-07
-9.59725e-09
-1.1694e-07
5.72339e-08
1.07906e-07
-1.27862e-08
-1.20896e-07
3.41107e-08
-1.80106e-07
1.78731e-08
1.55483e-07
-1.51945e-07
-1.26468e-07
-1.65382e-07
-2.83895e-07
-1.11014e-07
6.0188e-08
-2.09458e-07
-4.08012e-08
-1.33887e-07
-1.11056e-07
-4.71304e-08
7.75897e-08
4.54879e-08
3.502e-08
1.08305e-07
7.22323e-08
1.8121e-07
-1.18137e-07
2.16471e-07
4.14196e-08
2.10037e-07
-8.27242e-08
1.35482e-07
-2.50843e-07
1.27392e-07
-3.11297e-08
2.60071e-08
-8.95129e-08
9.0205e-08
-1.78851e-07
1.99729e-07
2.31062e-07
6.20003e-07
-5.31157e-07
1.27405e-06
7.72886e-07
3.36197e-06
-2.77676e-06
6.22415e-06
3.46909e-06
1.29246e-05
-1.20703e-05
2.65364e-05
1.36958e-05
4.3464e-05
-4.28397e-05
0.000109251
4.57785e-05
0.000138402
-0.000139712
0.000454414
0.000137667
0.000453159
-0.000453996
0.000453405
0.00045287
-2.35826e-06
0.000135973
-0.000141323
0.000136436
0.000135495
6.93793e-05
-7.41646e-05
4.33816e-05
7.07833e-05
2.62285e-05
-2.64657e-05
1.35688e-05
2.58302e-05
8.13957e-06
-7.23683e-06
3.78676e-06
7.48422e-06
1.99768e-06
-1.43757e-06
6.64225e-07
1.66767e-06
1.69063e-07
-1.80378e-07
-2.33565e-07
1.79089e-07
-4.0619e-07
-6.66066e-08
-5.0119e-07
-1.0804e-07
-6.39248e-07
-7.66402e-08
-6.50417e-07
-1.52495e-07
-6.47725e-07
3.87427e-08
-7.25218e-07
-1.55765e-07
-5.94898e-07
2.74015e-08
-4.68564e-07
6.75871e-09
-5.17859e-07
-2.50467e-08
-4.13638e-07
2.94944e-08
-2.96919e-07
-2.32897e-08
-3.26482e-07
6.24283e-09
-5.03194e-07
-1.43109e-07
-4.56138e-07
1.6314e-08
-3.59487e-07
-3.28062e-08
-5.69304e-07
-1.63391e-07
-6.38944e-07
3.61009e-08
-3.42438e-07
-8.71392e-09
-3.90577e-07
-6.12534e-08
-4.24215e-07
-3.79386e-08
-3.45915e-07
-9.51565e-08
-3.31861e-07
-8.62524e-08
-2.5253e-07
-1.02077e-07
-3.36852e-07
-1.58125e-07
-5.86071e-07
-2.3758e-07
-5.24502e-07
-8.36818e-08
-3.99903e-07
-7.15058e-09
-4.1789e-07
-1.26155e-07
-5.57347e-07
-1.06546e-07
-6.61936e-07
9.96887e-09
-4.96976e-07
4.97617e-08
-1.89011e-07
9.01582e-08
-1.49552e-07
-4.96476e-08
-3.64718e-07
-8.26624e-08
-4.71424e-07
-9.21271e-08
-4.60101e-07
-1.33459e-07
-5.20586e-07
-3.7866e-08
-3.77446e-07
-5.01415e-09
-2.2891e-07
-1.69016e-08
-4.22181e-07
-1.48476e-07
-7.56527e-07
-1.44118e-07
-7.56603e-07
1.03988e-07
-4.19355e-07
1.14105e-07
-2.17704e-07
8.58726e-08
-1.0508e-07
3.60553e-08
-5.59661e-08
3.63516e-08
-1.93119e-07
-3.98948e-08
-4.39439e-07
-1.74718e-07
-6.12025e-07
-7.00032e-08
-5.74681e-07
3.03305e-08
-4.95145e-07
1.45038e-07
-3.12651e-07
1.81471e-07
-1.45332e-08
1.20648e-07
1.2461e-07
6.65236e-08
-2.91173e-08
-3.53579e-08
-1.98408e-07
-2.43202e-08
-1.91084e-07
-2.16151e-08
-1.77171e-07
-1.38626e-07
-3.77631e-07
-1.78233e-07
-5.73723e-07
-1.87542e-07
-5.66002e-07
-1.9963e-08
-4.06416e-07
-7.75632e-10
-3.58612e-07
-8.79716e-08
-4.56003e-07
-1.03262e-07
-4.7574e-07
-5.96846e-08
-3.85431e-07
6.58265e-08
-3.14535e-07
1.21977e-07
-2.84438e-07
5.57989e-08
-2.03929e-07
1.00237e-07
-4.93451e-08
2.77431e-08
3.03645e-08
2.6373e-08
-9.98366e-08
-1.85479e-08
-2.81045e-07
-7.80516e-08
-3.53201e-07
-8.50806e-09
-2.55552e-07
-8.39815e-08
-2.19774e-07
-9.47804e-08
-3.36591e-07
-1.46041e-07
-4.80945e-07
-1.07844e-07
-4.9244e-07
4.32883e-08
-3.3231e-07
9.38745e-08
-2.13498e-07
9.30793e-08
-2.22829e-07
4.34578e-08
-2.53045e-07
-5.16712e-08
-2.25893e-07
4.79989e-08
-1.30899e-07
-1.92385e-08
-1.26603e-07
4.66439e-08
-2.37624e-07
8.45821e-10
-3.65932e-07
1.7954e-08
-3.88218e-07
9.51821e-08
-2.43144e-07
5.04796e-08
-8.32092e-08
8.69592e-08
-6.52113e-08
-4.87012e-08
-1.74542e-07
-6.4235e-08
-3.06117e-07
-4.20756e-08
-3.09007e-07
-3.02386e-08
-2.17557e-07
1.13371e-07
-1.05258e-07
3.83904e-08
-8.30308e-08
5.24715e-08
-1.43297e-07
6.62031e-09
-1.90764e-07
-3.69793e-08
-1.55363e-07
1.79848e-08
-4.76541e-08
-4.60662e-08
2.31083e-08
-8.70875e-08
-3.15766e-08
-1.52919e-07
-1.94691e-07
-2.40965e-07
-3.37339e-07
-1.61758e-07
-3.65588e-07
-1.63194e-07
-2.89296e-07
-6.68712e-08
-1.55105e-07
-5.53892e-08
-9.75359e-08
-1.07827e-07
-1.29507e-07
-1.05335e-07
-2.78436e-07
-1.81193e-07
-4.20082e-07
-1.40522e-07
-4.70922e-07
-9.65711e-08
-4.19614e-07
-5.38165e-08
-3.21793e-07
-5.41305e-09
-2.70381e-07
-4.34027e-08
-3.03672e-07
-5.99417e-08
-4.26899e-07
-6.90212e-08
-5.70697e-07
-7.06907e-08
-6.52337e-07
3.00401e-08
-6.28801e-07
8.30917e-08
-5.01792e-07
1.63088e-07
-3.39361e-07
2.18268e-07
-2.04074e-07
2.18618e-07
-1.06029e-07
2.37794e-07
-1.04107e-07
1.95279e-07
-1.44393e-07
1.998e-07
-2.11637e-07
1.90013e-07
-2.38796e-07
1.85034e-07
-2.20653e-07
2.3411e-07
-1.4497e-07
1.87629e-07
-4.165e-08
2.2925e-07
3.48721e-08
1.68371e-07
9.37959e-08
1.55217e-07
1.06104e-07
1.1944e-07
6.66379e-08
7.41141e-08
1.26316e-08
7.62755e-08
-6.71073e-08
4.22779e-08
-9.81118e-08
7.18526e-08
-9.00302e-08
7.71198e-08
-5.84279e-08
6.98974e-08
2.4367e-08
6.99398e-08
8.57933e-08
3.42948e-08
1.45838e-07
5.26683e-09
1.46844e-07
-3.12424e-08
1.09687e-07
-6.7546e-08
3.02239e-08
-8.1907e-08
-5.28971e-08
-8.57644e-08
-1.22222e-07
-7.50811e-08
-1.80635e-07
-3.10941e-08
-1.98493e-07
-2.16209e-08
-2.11519e-07
5.02499e-08
-1.91096e-07
3.87395e-08
-1.76369e-07
7.00513e-08
-1.58259e-07
6.85322e-08
-1.41349e-07
5.82201e-08
-1.15731e-07
7.45964e-08
-6.86882e-08
8.08071e-08
-1.48921e-08
9.79504e-08
4.76585e-08
9.72501e-08
1.02414e-07
9.37782e-08
1.49556e-07
7.94024e-08
1.84255e-07
5.29207e-08
1.97558e-07
1.21825e-08
1.85027e-07
-3.91433e-08
1.49476e-07
-9.24238e-08
9.7135e-08
-1.35125e-07
3.24399e-08
-1.59879e-07
-4.14972e-08
-1.63985e-07
-1.15364e-07
-1.46962e-07
-1.83132e-07
-1.13499e-07
-2.25009e-07
-6.94926e-08
-2.31898e-07
-1.53203e-08
-2.05087e-07
3.66624e-08
-1.51575e-07
8.22078e-08
-8.33373e-08
1.05679e-07
-4.7116e-09
1.21669e-07
8.75531e-08
1.21742e-07
1.73125e-07
1.06728e-07
2.41597e-07
8.40847e-08
2.85607e-07
4.70818e-08
2.98829e-07
-2.34352e-09
2.80116e-07
-6.87658e-08
2.21762e-07
-1.46104e-07
1.21968e-07
-2.14828e-07
-7.3019e-09
-2.56245e-07
-1.36752e-07
-2.60957e-07
-2.4186e-07
-2.2704e-07
-3.08465e-07
-1.65805e-07
-3.36715e-07
-9.1747e-08
-3.35593e-07
-1.30688e-08
-3.05291e-07
5.54949e-08
-2.43627e-07
1.084e-07
-1.55439e-07
1.45789e-07
-5.03412e-08
1.67733e-07
5.47698e-08
1.77864e-07
1.42867e-07
1.60095e-07
2.0355e-07
1.33416e-07
2.34365e-07
8.71272e-08
2.34635e-07
4.01381e-08
2.08271e-07
-9.55873e-09
1.60181e-07
-5.42345e-08
9.73307e-08
-9.11559e-08
3.14045e-08
-1.15761e-07
-3.45461e-08
-1.20414e-07
-8.58533e-08
-1.0197e-07
-1.13425e-07
-6.17252e-08
-1.09784e-07
-1.28722e-08
-7.52452e-08
3.31144e-08
-1.96234e-08
6.54085e-08
3.94729e-08
7.74265e-08
7.98798e-08
6.97649e-08
9.92079e-08
4.041e-08
9.40137e-08
1.50919e-08
7.72382e-08
-1.13827e-08
6.13665e-08
-5.47271e-09
3.91379e-08
-1.82543e-08
2.78402e-08
1.08971e-08
1.46707e-08
1.6337e-08
-2.2016e-09
1.89753e-09
3.46638e-08
7.36881e-08
7.37623e-08
2.89814e-08
1.43247e-07
7.10277e-08
1.93086e-07
6.0211e-08
2.16951e-07
-2.36466e-08
2.02672e-07
4.30132e-08
1.65896e-07
-8.25582e-08
1.03334e-07
-4.34186e-08
4.91808e-08
-7.68316e-08
-3.51748e-08
-9.48468e-08
-8.94017e-08
-1.46559e-08
-1.39652e-07
-1.31273e-08
-1.45333e-07
7.21693e-08
-9.82176e-08
1.33869e-07
-1.43876e-08
1.34267e-07
1.1319e-07
2.26671e-07
2.20001e-07
1.39555e-07
3.03616e-07
1.68271e-07
3.41803e-07
1.25415e-07
3.35292e-07
4.20759e-08
2.83277e-07
8.53226e-08
1.94343e-07
-2.36321e-08
1.05806e-07
3.42455e-08
6.33683e-08
3.10718e-08
8.08466e-08
6.79907e-08
1.4799e-07
1.22186e-07
2.28309e-07
8.85029e-08
3.0134e-07
1.44384e-07
3.38654e-07
6.51253e-08
3.56718e-07
7.83906e-08
3.74194e-07
4.5352e-08
4.03498e-07
-3.49906e-09
4.3906e-07
2.52982e-08
4.48e-07
-6.94998e-08
4.20982e-07
-8.19719e-08
3.58985e-07
-1.21511e-07
2.7367e-07
-1.69287e-07
2.08658e-07
-1.161e-07
1.62198e-07
-1.50644e-07
1.81499e-07
-9.11401e-08
2.33437e-07
-7.08658e-08
2.9371e-07
-1.15048e-07
3.01837e-07
-9.04133e-08
2.69908e-07
-1.75013e-07
2.29446e-07
-1.52727e-07
2.15587e-07
-1.25073e-07
2.56463e-07
-1.81102e-07
2.75437e-07
-1.10529e-07
2.7629e-07
-2.23423e-07
1.74977e-07
-1.98969e-07
4.56017e-08
-2.30805e-07
-8.6264e-08
-2.08568e-07
-1.19927e-07
-1.2562e-07
-1.04538e-07
-9.69428e-08
-3.44092e-08
-3.90547e-08
4.54531e-08
-2.76536e-08
5.99543e-08
-1.71551e-08
9.79702e-08
2.37916e-08
1.02584e-07
2.79753e-08
1.50806e-07
5.16061e-08
1.91215e-07
5.34516e-08
1.9136e-07
4.99704e-09
1.58563e-07
3.88902e-08
1.16913e-07
-9.1489e-09
1.19997e-07
4.12833e-08
1.46359e-07
2.35676e-08
1.67023e-07
1.60042e-08
1.45067e-07
5.25936e-08
1.11743e-07
2.04494e-08
1.39739e-07
1.20915e-07
2.19437e-07
7.07149e-08
3.12914e-07
9.26671e-08
3.31774e-07
4.6732e-08
3.53477e-07
-2.66848e-08
3.31119e-07
1.16719e-08
3.85548e-07
-4.78322e-08
3.45631e-07
-5.75986e-08
2.3815e-07
-1.26963e-07
6.20123e-08
-1.57593e-07
-1.98365e-08
-8.38077e-08
-4.50213e-08
-4.53207e-08
3.36884e-10
2.03734e-08
2.19322e-08
8.63729e-08
2.66894e-08
1.17598e-07
1.46377e-07
2.06151e-07
2.61138e-07
1.59923e-07
3.25858e-07
1.46926e-07
3.07061e-07
1.21564e-07
3.47368e-07
7.66605e-08
3.43022e-07
1.28913e-07
3.4492e-07
2.31614e-08
2.66221e-07
1.15288e-08
2.54407e-07
5.52515e-10
3.7077e-07
1.60175e-08
4.03247e-07
6.52074e-08
3.79595e-07
-6.19765e-09
2.64678e-07
-1.03543e-08
2.5308e-07
-1.28094e-08
2.80425e-07
-3.16357e-08
2.18104e-07
3.42899e-08
1.41728e-07
1.31482e-09
1.38946e-07
6.1259e-08
1.8986e-07
1.03686e-07
2.39007e-07
8.06942e-08
2.59492e-07
1.93834e-07
3.07923e-07
9.80703e-08
2.89133e-07
1.195e-07
2.68922e-07
7.48981e-08
3.12726e-07
1.15729e-07
4.06049e-07
1.64528e-07
4.25482e-07
9.00075e-08
4.46694e-07
1.57363e-07
6.23655e-07
1.57687e-07
7.37941e-07
1.07872e-07
5.96235e-07
-1.07848e-08
4.67864e-07
-8.67054e-08
4.31852e-07
-2.32463e-08
3.53329e-07
-8.43921e-08
2.34506e-07
-5.10293e-08
2.80689e-07
-1.20595e-08
3.39221e-07
-1.99363e-08
2.66088e-07
1.05235e-07
3.19363e-07
8.15857e-08
5.08089e-07
1.80318e-07
6.19185e-07
1.59667e-07
6.59972e-07
7.32698e-08
6.06539e-07
3.33708e-08
5.27202e-07
-3.58102e-08
6.16968e-07
-1.77971e-08
6.45249e-07
-9.94766e-08
4.67219e-07
-1.9847e-07
3.7885e-07
-1.11455e-07
3.77437e-07
-1.3452e-07
3.68926e-07
-1.07539e-07
5.0552e-07
-2.7942e-08
4.70833e-07
-8.4256e-08
3.49593e-07
-5.68114e-08
5.24321e-07
-1.90333e-08
4.54206e-07
-5.6253e-08
2.67791e-07
-9.5233e-08