/*--------------------------------*- C++ -*----------------------------------*\
| =========                 |                                                 |
| \\      /  F ield         | OpenFOAM: The Open Source CFD Toolbox           |
|  \\    /   O peration     | Version:  2106                                  |
|   \\  /    A nd           | Website:  www.openfoam.com                      |
|    \\/     M anipulation  |                                                 |
\*---------------------------------------------------------------------------*/
FoamFile
{
    version     2.0;
    format      ascii;
    arch        "LSB;label=32;scalar=64";
    class       surfaceScalarField;
    location    "0.003";
    object      phiB;
}
// * * * * * * * * * * * * * * * * * * * * * * * * * * * * * * * * * * * * * //

dimensions      [1 2 -2 0 0 -1 0];

oriented        oriented;

internalField   nonuniform List<scalar> 
319200
(
1.75478e-06
2.03016e-06
8.46527e-07
-4.51068e-07
2.83653e-06
3.90732e-07
1.93541e-06
-3.62526e-07
1.11967e-06
-1.21014e-06
7.21769e-08
-1.18657e-06
-6.42595e-07
-6.82259e-07
-8.84098e-07
-1.84947e-07
-8.059e-07
1.12841e-07
-6.02987e-07
2.24531e-07
-3.9258e-07
2.27425e-07
-2.28923e-07
1.86178e-07
-1.17379e-07
1.39302e-07
-4.77193e-08
1.0116e-07
-1.20063e-08
7.49622e-08
1.13531e-08
6.00488e-08
1.80932e-08
5.0797e-08
2.48076e-08
4.82375e-08
3.03545e-08
4.74718e-08
3.05077e-08
4.82228e-08
3.98944e-08
5.17927e-08
4.76368e-08
5.3275e-08
5.54745e-08
5.63094e-08
7.30686e-08
6.01666e-08
8.72051e-08
6.09654e-08
1.01154e-07
6.31737e-08
1.23723e-07
6.55308e-08
1.41513e-07
6.42478e-08
1.55473e-07
6.3807e-08
1.7674e-07
6.41826e-08
1.9387e-07
6.08406e-08
2.02604e-07
5.73351e-08
2.15286e-07
5.63307e-08
2.28112e-07
5.2868e-08
2.31062e-07
4.75362e-08
2.3268e-07
4.56498e-08
2.39344e-07
4.46311e-08
2.41319e-07
4.05212e-08
2.3648e-07
3.75941e-08
2.35816e-07
3.86966e-08
2.40074e-07
3.88566e-08
2.39092e-07
3.61137e-08
2.34043e-07
3.54818e-08
2.34857e-07
3.81235e-08
2.40236e-07
3.8753e-08
2.40663e-07
3.60696e-08
2.36647e-07
3.50409e-08
2.3708e-07
3.72183e-08
2.42361e-07
3.79425e-08
2.44182e-07
3.50197e-08
2.40526e-07
3.2696e-08
2.38811e-07
3.42586e-08
2.43273e-07
3.65863e-08
2.48915e-07
3.5622e-08
2.50429e-07
3.30401e-08
2.50392e-07
3.33115e-08
2.55094e-07
3.65669e-08
2.64929e-07
3.85721e-08
2.74076e-07
3.69621e-08
2.78803e-07
3.42901e-08
2.81612e-07
3.40924e-08
2.87324e-07
3.59926e-08
2.96029e-07
3.64042e-08
3.02556e-07
3.33274e-08
3.03815e-07
2.87486e-08
3.01616e-07
2.61395e-08
2.994e-07
2.63186e-08
2.99191e-07
2.67865e-08
2.99289e-07
2.50667e-08
2.96691e-07
2.13858e-08
2.91329e-07
1.83162e-08
2.85471e-07
1.8176e-08
2.82018e-07
2.06185e-08
2.82482e-07
2.3156e-08
2.8491e-07
2.3747e-08
2.86916e-07
2.24312e-08
2.88522e-07
2.0986e-08
2.9053e-07
2.12027e-08
2.93935e-07
2.32358e-08
2.99321e-07
2.5616e-08
3.05655e-07
2.64973e-08
3.11988e-07
2.49569e-08
3.17383e-07
2.17852e-08
3.20013e-07
1.87105e-08
3.20235e-07
1.67895e-08
3.20205e-07
1.60683e-08
3.20099e-07
1.59379e-08
3.19433e-07
1.53911e-08
3.18118e-07
1.38114e-08
3.14754e-07
1.13899e-08
3.09102e-07
8.68513e-09
3.03589e-07
6.50062e-09
2.99353e-07
5.7117e-09
2.9598e-07
6.47592e-09
2.94466e-07
8.15817e-09
2.95074e-07
1.00905e-08
2.96181e-07
1.17358e-08
2.97966e-07
1.25318e-08
3.01535e-07
1.2305e-08
3.05508e-07
1.13728e-08
3.08497e-07
9.96918e-09
3.11044e-07
8.24233e-09
3.12771e-07
6.55623e-09
3.12632e-07
5.09691e-09
3.11425e-07
3.71272e-09
3.10071e-07
2.3503e-09
3.07921e-07
1.07848e-09
3.04586e-07
-1.01509e-10
3.00505e-07
-1.12563e-09
2.95971e-07
-1.88663e-09
2.91746e-07
-2.42792e-09
2.88872e-07
-2.79581e-09
2.86826e-07
-2.90634e-09
2.84558e-07
-2.80788e-09
2.82952e-07
-2.72492e-09
2.83116e-07
-2.71362e-09
2.83936e-07
-2.69228e-09
2.84191e-07
-2.82024e-09
2.84471e-07
-3.35301e-09
2.84998e-07
-4.24532e-09
2.84537e-07
-5.35259e-09
2.82726e-07
-6.68106e-09
2.80637e-07
-8.13141e-09
2.78622e-07
-9.43348e-09
2.76021e-07
-1.0486e-08
2.72768e-07
-1.14259e-08
2.6938e-07
-1.23131e-08
2.65859e-07
-1.30087e-08
2.62177e-07
-1.34076e-08
2.59075e-07
-1.35862e-08
2.57054e-07
-1.36944e-08
2.55553e-07
-1.38681e-08
2.5397e-07
-1.42491e-08
2.52377e-07
-1.48999e-08
2.50718e-07
-1.57122e-08
2.48511e-07
-1.65702e-08
2.45726e-07
-1.74875e-08
2.42884e-07
-1.84626e-08
2.40133e-07
-1.93779e-08
2.3708e-07
-2.01403e-08
2.33581e-07
-2.0794e-08
2.30028e-07
-2.1415e-08
2.26781e-07
-2.19799e-08
2.23884e-07
-2.2404e-08
2.21374e-07
-2.26662e-08
2.19345e-07
-2.28659e-08
2.17636e-07
-2.31774e-08
2.15825e-07
-2.37586e-08
2.13572e-07
-2.4648e-08
2.10756e-07
-2.5717e-08
2.0741e-07
-2.67556e-08
2.03722e-07
-2.76235e-08
1.99977e-07
-2.83175e-08
1.96336e-07
-2.89212e-08
1.92733e-07
-2.95161e-08
1.89054e-07
-3.01194e-08
1.85318e-07
-3.06823e-08
1.81609e-07
-3.11451e-08
1.78006e-07
-3.15004e-08
1.74674e-07
-3.18028e-08
1.71824e-07
-3.21083e-08
1.69412e-07
-3.24338e-08
1.67089e-07
-3.28076e-08
1.64536e-07
-3.33049e-08
1.61695e-07
-3.39739e-08
1.58553e-07
-3.47611e-08
1.54973e-07
-3.55624e-08
1.50972e-07
-3.62888e-08
1.46981e-07
-3.68711e-08
1.43495e-07
-3.72786e-08
1.4043e-07
-3.75555e-08
1.37149e-07
-3.78226e-08
1.33306e-07
-3.82235e-08
1.29342e-07
-3.88103e-08
1.25807e-07
-3.94494e-08
1.22554e-07
-3.99169e-08
1.19059e-07
-4.01366e-08
1.15289e-07
-4.02386e-08
1.11736e-07
-4.03684e-08
1.08662e-07
-4.05649e-08
1.05725e-07
-4.08361e-08
1.02456e-07
-4.12126e-08
9.88624e-08
-4.1687e-08
9.53286e-08
-4.21793e-08
9.19503e-08
-4.25743e-08
8.83137e-08
-4.27909e-08
8.41673e-08
-4.28572e-08
8.0056e-08
-4.28962e-08
7.68172e-08
-4.29888e-08
7.44677e-08
-4.31037e-08
7.2033e-08
-4.32173e-08
6.86134e-08
-4.34111e-08
6.43067e-08
-4.37609e-08
5.99089e-08
-4.41891e-08
5.59423e-08
-4.45007e-08
5.22633e-08
-4.45474e-08
4.85792e-08
-4.43378e-08
4.50449e-08
-4.40091e-08
4.20826e-08
-4.37044e-08
3.96605e-08
-4.34869e-08
3.7089e-08
-4.33772e-08
3.37379e-08
-4.34233e-08
2.97594e-08
-4.36521e-08
2.58427e-08
-4.39655e-08
2.23421e-08
-4.4168e-08
1.8923e-08
-4.412e-08
1.51118e-08
-4.38368e-08
1.10137e-08
-4.34443e-08
7.31493e-09
-4.30704e-08
4.53052e-09
-4.27667e-08
2.34857e-09
-4.25118e-08
-1.34244e-10
-4.22896e-08
-3.51786e-09
-4.2134e-08
-7.58882e-09
-4.2058e-08
-1.17123e-08
-4.19796e-08
-1.54703e-08
-4.17767e-08
-1.88074e-08
-4.13969e-08
-2.18328e-08
-4.08805e-08
-2.47018e-08
-4.03132e-08
-2.75674e-08
-3.9798e-08
-3.04922e-08
-3.94229e-08
-3.34595e-08
-3.91983e-08
-3.64901e-08
-3.90317e-08
-3.967e-08
-3.87967e-08
-4.30704e-08
-3.84257e-08
-4.6637e-08
-3.79365e-08
-5.011e-08
-3.73966e-08
-5.31899e-08
-3.68746e-08
-5.59413e-08
-3.64031e-08
-5.88703e-08
-3.59731e-08
-6.23707e-08
-3.55624e-08
-6.62269e-08
-3.51434e-08
-6.98589e-08
-3.4656e-08
-7.29096e-08
-3.40159e-08
-7.54469e-08
-3.31997e-08
-7.77159e-08
-3.23044e-08
-7.98703e-08
-3.14795e-08
-8.19861e-08
-3.08199e-08
-8.41783e-08
-3.03357e-08
-8.65768e-08
-2.99787e-08
-8.92504e-08
-2.96692e-08
-9.22054e-08
-2.93168e-08
-9.54093e-08
-2.88705e-08
-9.8753e-08
-2.83532e-08
-1.02072e-07
-2.78193e-08
-1.05305e-07
-2.72899e-08
-1.08541e-07
-2.67346e-08
-1.11833e-07
-2.60966e-08
-1.15055e-07
-2.53186e-08
-1.17943e-07
-2.437e-08
-1.20278e-07
-2.32871e-08
-1.22027e-07
-2.21854e-08
-1.23394e-07
-2.1209e-08
-1.24769e-07
-2.04652e-08
-1.26507e-07
-1.99832e-08
-1.28688e-07
-1.96995e-08
-1.31186e-07
-1.94751e-08
-1.33908e-07
-1.91605e-08
-1.36811e-07
-1.86807e-08
-1.39751e-07
-1.80552e-08
-1.42575e-07
-1.73337e-08
-1.45301e-07
-1.65492e-08
-1.47953e-07
-1.57287e-08
-1.50298e-07
-1.48909e-08
-1.52031e-07
-1.40171e-08
-1.53223e-07
-1.30898e-08
-1.54247e-07
-1.218e-08
-1.55316e-07
-1.14233e-08
-1.56566e-07
-1.08984e-08
-1.58387e-07
-1.05811e-08
-1.60996e-07
-1.04025e-08
-1.63968e-07
-1.02697e-08
-1.66823e-07
-1.00376e-08
-1.69637e-07
-9.593e-09
-1.72516e-07
-8.95176e-09
-1.75187e-07
-8.17073e-09
-1.775e-07
-7.23213e-09
-1.79476e-07
-6.11276e-09
-1.80666e-07
-4.89008e-09
-1.80486e-07
-3.66137e-09
-1.79332e-07
-2.48476e-09
-1.78211e-07
-1.49579e-09
-1.77352e-07
-8.69448e-10
-1.76651e-07
-6.03941e-10
-1.76866e-07
-5.44533e-10
-1.78552e-07
-6.23768e-10
-1.80934e-07
-8.46378e-10
-1.83375e-07
-1.09149e-09
-1.86413e-07
-1.21648e-09
-1.90257e-07
-1.22487e-09
-1.94168e-07
-1.12243e-09
-1.97702e-07
-8.26972e-10
-2.00793e-07
-3.16838e-10
-2.03128e-07
3.59263e-10
-2.04657e-07
1.22637e-09
-2.0559e-07
2.33019e-09
-2.05396e-07
3.67167e-09
-2.03576e-07
5.3207e-09
-2.00838e-07
7.27554e-09
-1.97643e-07
9.21437e-09
-1.9374e-07
1.06896e-08
-1.90072e-07
1.13664e-08
-1.87888e-07
1.09392e-08
-1.86871e-07
9.29635e-09
-1.87016e-07
6.87964e-09
-1.89401e-07
4.45442e-09
-1.93697e-07
2.71188e-09
-1.98558e-07
2.24649e-09
-2.03584e-07
3.26708e-09
-2.08019e-07
5.20633e-09
-2.1057e-07
7.09211e-09
-2.1166e-07
8.19193e-09
-2.12498e-07
8.2667e-09
-2.13169e-07
7.80947e-09
-2.13782e-07
7.95832e-09
-2.14112e-07
9.5731e-09
-2.12324e-07
1.25221e-08
-2.07595e-07
1.57741e-08
-2.01269e-07
1.78189e-08
-1.94634e-07
1.76369e-08
-1.89071e-07
1.57187e-08
-1.85849e-07
1.37203e-08
-1.84252e-07
1.308e-08
-1.8283e-07
1.39095e-08
-1.81024e-07
1.48103e-08
-1.793e-07
1.40597e-08
-1.79669e-07
1.13819e-08
-1.83674e-07
8.34172e-09
-1.89776e-07
6.99447e-09
-1.95187e-07
8.04528e-09
-1.98286e-07
1.0109e-08
-1.993e-07
1.11847e-08
-2.00366e-07
1.09034e-08
-2.02556e-07
1.08538e-08
-2.03856e-07
1.27337e-08
-2.01905e-07
1.62914e-08
-1.96335e-07
1.93616e-08
-1.89521e-07
2.03999e-08
-1.84419e-07
2.02943e-08
-1.80306e-07
2.09493e-08
-1.74409e-07
2.26927e-08
-1.66685e-07
2.38149e-08
-1.59814e-07
2.29253e-08
-1.55983e-07
2.09894e-08
-1.54155e-07
1.99791e-08
-1.51647e-07
2.00816e-08
-1.48501e-07
1.9745e-08
-1.47093e-07
1.83546e-08
-1.47941e-07
1.72977e-08
-1.48606e-07
1.77114e-08
-1.47578e-07
1.87068e-08
-1.46499e-07
1.90515e-08
-1.46728e-07
1.9196e-08
-1.47082e-07
2.0081e-08
-1.46371e-07
2.12793e-08
-1.45735e-07
2.18987e-08
-1.46272e-07
2.21378e-08
-1.47156e-07
2.26201e-08
-1.48011e-07
2.32236e-08
-1.49159e-07
2.37381e-08
-1.50175e-07
2.44677e-08
-1.50594e-07
2.54866e-08
-1.50574e-07
2.68137e-08
-1.48967e-07
2.88367e-08
-1.44341e-07
3.13576e-08
-1.38275e-07
3.38436e-08
-1.30683e-07
3.68332e-08
-1.18955e-07
4.05432e-08
-1.04676e-07
4.36907e-08
-9.04378e-08
4.64066e-08
-7.33311e-08
4.97169e-08
-5.38183e-08
5.22135e-08
-3.69368e-08
5.33628e-08
-1.95226e-08
5.4883e-08
-9.8904e-10
5.56597e-08
1.25786e-08
5.47329e-08
2.44103e-08
5.42743e-08
3.63197e-08
5.30798e-08
4.12425e-08
5.04187e-08
4.4075e-08
4.82571e-08
4.4751e-08
4.49459e-08
3.64742e-08
3.98442e-08
2.55573e-08
3.41456e-08
3.03283e-09
2.44736e-08
-3.55699e-08
1.05734e-08
-9.49036e-08
-9.81568e-09
-1.95168e-07
-3.97474e-08
-3.481e-07
-7.85273e-08
-5.79027e-07
-1.24967e-07
-8.94999e-07
-1.67366e-07
-1.26974e-06
-1.83896e-07
-1.58975e-06
-1.39021e-07
-1.60243e-06
1.20106e-09
-9.48386e-07
2.25133e-07
5.2586e-07
3.97133e-07
1.96843e-06
2.12457e-07
1.06916e-06
-5.64541e-07
-3.89427e-07
-1.4155e-06
4.42365e-07
-8.23882e-07
-2.04381e-06
-7.30285e-07
2.69634e-07
1.69196e-06
7.48091e-07
2.0838e-06
2.15898e-07
1.08792e-06
-3.35129e-07
1.14313e-06
-6.51446e-07
5.76772e-07
-6.1126e-07
-1.44456e-07
-3.64277e-07
-5.85721e-07
-1.01265e-07
-6.9413e-07
7.78118e-08
-5.99938e-07
1.61014e-07
-4.33755e-07
1.77478e-07
-2.75655e-07
1.60439e-07
-1.55423e-07
1.33812e-07
-7.38815e-08
1.09211e-07
-2.68861e-08
9.06096e-08
2.27662e-09
7.91533e-08
1.57084e-08
7.18662e-08
2.35755e-08
6.92066e-08
3.05432e-08
6.86282e-08
3.38575e-08
6.91223e-08
4.13626e-08
7.16001e-08
5.08261e-08
7.34065e-08
5.93378e-08
7.53786e-08
7.38077e-08
7.8333e-08
8.93436e-08
7.94813e-08
1.03358e-07
8.04356e-08
1.22279e-07
8.18933e-08
1.41218e-07
8.12313e-08
1.56177e-07
7.98659e-08
1.73329e-07
7.92263e-08
1.90438e-07
7.68513e-08
2.01845e-07
7.31498e-08
2.11953e-07
7.07483e-08
2.2301e-07
6.80783e-08
2.29423e-07
6.37358e-08
2.31628e-07
6.04179e-08
2.35224e-07
5.87842e-08
2.38573e-07
5.62148e-08
2.37581e-07
5.31574e-08
2.35695e-07
5.2184e-08
2.37011e-07
5.22628e-08
2.3835e-07
5.09505e-08
2.36669e-07
4.94037e-08
2.35392e-07
4.97097e-08
2.37459e-07
5.04018e-08
2.39645e-07
4.92578e-08
2.38877e-07
4.74636e-08
2.37738e-07
4.71675e-08
2.39272e-07
4.7544e-08
2.41659e-07
4.64754e-08
2.41852e-07
4.4361e-08
2.40928e-07
4.34428e-08
2.42282e-07
4.41296e-08
2.46363e-07
4.44843e-08
2.50527e-07
4.34292e-08
2.53452e-07
4.23812e-08
2.57051e-07
4.28613e-08
2.63331e-07
4.41027e-08
2.71308e-07
4.42032e-08
2.78505e-07
4.27492e-08
2.83757e-07
4.11239e-08
2.88139e-07
4.0432e-08
2.93119e-07
4.01537e-08
2.98179e-07
3.8884e-08
3.01337e-07
3.60816e-08
3.01497e-07
3.28541e-08
2.9965e-07
3.06035e-08
2.97534e-07
2.94889e-08
2.95884e-07
2.84786e-08
2.93951e-07
2.67543e-08
2.9097e-07
2.46416e-08
2.87366e-07
2.31366e-08
2.84336e-07
2.29117e-08
2.83115e-07
2.3757e-08
2.84071e-07
2.47674e-08
2.8643e-07
2.50872e-08
2.89223e-07
2.46116e-08
2.92108e-07
2.39693e-08
2.95442e-07
2.37809e-08
2.9971e-07
2.4049e-08
3.04669e-07
2.42461e-08
3.09571e-07
2.37586e-08
3.13969e-07
2.23201e-08
3.17376e-07
2.01629e-08
3.19126e-07
1.77348e-08
3.19258e-07
1.54731e-08
3.18257e-07
1.36688e-08
3.16371e-07
1.22072e-08
3.13942e-07
1.07945e-08
3.11163e-07
9.36321e-09
3.07828e-07
7.94042e-09
3.04165e-07
6.60055e-09
3.00755e-07
5.59183e-09
2.979e-07
5.11471e-09
2.95966e-07
5.15639e-09
2.95386e-07
5.5895e-09
2.96127e-07
6.19608e-09
2.97818e-07
6.66716e-09
3.00212e-07
6.75996e-09
3.03108e-07
6.40115e-09
3.06022e-07
5.57167e-09
3.08499e-07
4.28769e-09
3.10358e-07
2.72223e-09
3.11312e-07
1.05638e-09
3.11069e-07
-7.08584e-10
3.09692e-07
-2.55005e-09
3.07337e-07
-4.30464e-09
3.04159e-07
-5.8493e-09
3.00508e-07
-7.1295e-09
2.96656e-07
-8.10901e-09
2.92758e-07
-8.81307e-09
2.89248e-07
-9.27974e-09
2.86569e-07
-9.51158e-09
2.84663e-07
-9.56932e-09
2.83283e-07
-9.6175e-09
2.82583e-07
-9.77248e-09
2.8277e-07
-1.00072e-08
2.83397e-07
-1.03398e-08
2.83776e-07
-1.0944e-08
2.83726e-07
-1.19173e-08
2.83216e-07
-1.31427e-08
2.82017e-07
-1.44658e-08
2.80086e-07
-1.57924e-08
2.77604e-07
-1.70441e-08
2.74677e-07
-1.82085e-08
2.71438e-07
-1.93133e-08
2.6817e-07
-2.02882e-08
2.65096e-07
-2.10124e-08
2.62273e-07
-2.14789e-08
2.5972e-07
-2.18135e-08
2.57514e-07
-2.2153e-08
2.55695e-07
-2.25537e-08
2.54043e-07
-2.30333e-08
2.52213e-07
-2.36423e-08
2.50088e-07
-2.4426e-08
2.47705e-07
-2.5352e-08
2.4506e-07
-2.63335e-08
2.42203e-07
-2.72828e-08
2.39251e-07
-2.81355e-08
2.36196e-07
-2.88908e-08
2.32948e-07
-2.96082e-08
2.29579e-07
-3.03113e-08
2.26367e-07
-3.09354e-08
2.23571e-07
-3.13997e-08
2.21217e-07
-3.17156e-08
2.19129e-07
-3.20126e-08
2.17097e-07
-3.2457e-08
2.14937e-07
-3.31349e-08
2.12486e-07
-3.40027e-08
2.09648e-07
-3.4934e-08
2.06422e-07
-3.58147e-08
2.0288e-07
-3.66127e-08
1.99166e-07
-3.736e-08
1.95457e-07
-3.80778e-08
1.91852e-07
-3.87445e-08
1.88325e-07
-3.93281e-08
1.84812e-07
-3.98231e-08
1.81313e-07
-4.02536e-08
1.77909e-07
-4.06485e-08
1.74706e-07
-4.10198e-08
1.71774e-07
-4.13767e-08
1.69126e-07
-4.17374e-08
1.66621e-07
-4.21297e-08
1.63952e-07
-4.26088e-08
1.60906e-07
-4.32383e-08
1.57571e-07
-4.40023e-08
1.54107e-07
-4.47733e-08
1.50547e-07
-4.54205e-08
1.46903e-07
-4.59132e-08
1.43285e-07
-4.62997e-08
1.39798e-07
-4.66532e-08
1.36442e-07
-4.70441e-08
1.33081e-07
-4.7498e-08
1.29504e-07
-4.7984e-08
1.25678e-07
-4.84557e-08
1.21872e-07
-4.88598e-08
1.1831e-07
-4.91404e-08
1.14915e-07
-4.93111e-08
1.11591e-07
-4.94778e-08
1.08426e-07
-4.97208e-08
1.05395e-07
-5.00207e-08
1.02221e-07
-5.03442e-08
9.87011e-08
-5.07061e-08
9.49086e-08
-5.11023e-08
9.10631e-08
-5.14677e-08
8.73862e-08
-5.17294e-08
8.39721e-08
-5.18616e-08
8.06872e-08
-5.19e-08
7.73554e-08
-5.19331e-08
7.40196e-08
-5.20432e-08
7.0785e-08
-5.22409e-08
6.75076e-08
-5.24893e-08
6.3923e-08
-5.27642e-08
6.00022e-08
-5.30369e-08
5.59765e-08
-5.32303e-08
5.21038e-08
-5.32602e-08
4.85132e-08
-5.3113e-08
4.51859e-08
-5.28591e-08
4.20533e-08
-5.26094e-08
3.91194e-08
-5.24565e-08
3.63637e-08
-5.24245e-08
3.3525e-08
-5.24735e-08
3.02193e-08
-5.25648e-08
2.63561e-08
-5.26828e-08
2.22561e-08
-5.27806e-08
1.83221e-08
-5.27668e-08
1.47352e-08
-5.25845e-08
1.14393e-08
-5.2266e-08
8.26894e-09
-5.18991e-08
5.10289e-09
-5.15697e-08
1.95493e-09
-5.1328e-08
-1.14182e-09
-5.11658e-08
-4.30117e-09
-5.10311e-08
-7.67538e-09
-5.08803e-08
-1.12162e-08
-5.06951e-08
-1.47181e-08
-5.04414e-08
-1.80601e-08
-5.00705e-08
-2.1243e-08
-4.9591e-08
-2.42568e-08
-4.90884e-08
-2.71169e-08
-4.86472e-08
-2.99868e-08
-4.82892e-08
-3.30739e-08
-4.79987e-08
-3.64008e-08
-4.77475e-08
-3.98048e-08
-4.74772e-08
-4.31466e-08
-4.71158e-08
-4.64066e-08
-4.66463e-08
-4.95977e-08
-4.61276e-08
-5.2718e-08
-4.56313e-08
-5.58e-08
-4.51838e-08
-5.89087e-08
-4.47666e-08
-6.20826e-08
-4.43395e-08
-6.53243e-08
-4.38569e-08
-6.85848e-08
-4.32844e-08
-7.17018e-08
-4.26131e-08
-7.44823e-08
-4.18652e-08
-7.69052e-08
-4.1088e-08
-7.91393e-08
-4.0348e-08
-8.13666e-08
-3.97116e-08
-8.36848e-08
-3.92033e-08
-8.61708e-08
-3.87877e-08
-8.88992e-08
-3.83999e-08
-9.18565e-08
-3.7986e-08
-9.49473e-08
-3.75221e-08
-9.80957e-08
-3.701e-08
-1.01286e-07
-3.64687e-08
-1.04518e-07
-3.59115e-08
-1.07767e-07
-3.53203e-08
-1.10971e-07
-3.46477e-08
-1.14022e-07
-3.38509e-08
-1.16752e-07
-3.29246e-08
-1.19032e-07
-3.19145e-08
-1.20881e-07
-3.09102e-08
-1.2247e-07
-3.0016e-08
-1.24049e-07
-2.93037e-08
-1.25864e-07
-2.87762e-08
-1.28049e-07
-2.83723e-08
-1.30565e-07
-2.80006e-08
-1.33266e-07
-2.75744e-08
-1.3605e-07
-2.70407e-08
-1.38867e-07
-2.63974e-08
-1.41631e-07
-2.56778e-08
-1.44209e-07
-2.49066e-08
-1.46541e-07
-2.40858e-08
-1.48653e-07
-2.32172e-08
-1.5051e-07
-2.2314e-08
-1.52044e-07
-2.13993e-08
-1.53344e-07
-2.05179e-08
-1.54649e-07
-1.97461e-08
-1.5617e-07
-1.91506e-08
-1.58049e-07
-1.87267e-08
-1.60414e-07
-1.84005e-08
-1.63256e-07
-1.80765e-08
-1.66334e-07
-1.76739e-08
-1.69342e-07
-1.71435e-08
-1.72106e-07
-1.64698e-08
-1.74551e-07
-1.56487e-08
-1.76557e-07
-1.46564e-08
-1.77989e-07
-1.34926e-08
-1.788e-07
-1.2236e-08
-1.78967e-07
-1.09961e-08
-1.78573e-07
-9.85306e-09
-1.77958e-07
-8.89619e-09
-1.77484e-07
-8.24461e-09
-1.77287e-07
-7.92807e-09
-1.77528e-07
-7.83251e-09
-1.78573e-07
-7.84809e-09
-1.80591e-07
-7.94184e-09
-1.83375e-07
-8.04258e-09
-1.86736e-07
-8.00911e-09
-1.90577e-07
-7.74963e-09
-1.94553e-07
-7.24658e-09
-1.98129e-07
-6.47333e-09
-2.00957e-07
-5.42517e-09
-2.02868e-07
-4.17466e-09
-2.03704e-07
-2.8165e-09
-2.03499e-07
-1.44637e-09
-2.02432e-07
-1.59769e-10
-2.006e-07
1.02322e-09
-1.98255e-07
2.13847e-09
-1.95771e-07
3.1318e-09
-1.9328e-07
3.89465e-09
-1.90953e-07
4.40934e-09
-1.89313e-07
4.64954e-09
-1.88701e-07
4.49358e-09
-1.8907e-07
3.90843e-09
-1.90535e-07
3.03144e-09
-1.93273e-07
2.06721e-09
-1.97025e-07
1.32331e-09
-2.0131e-07
1.18623e-09
-2.057e-07
1.8259e-09
-2.09525e-07
3.10325e-09
-2.12115e-07
4.74307e-09
-2.1334e-07
6.38222e-09
-2.13306e-07
7.71699e-09
-2.12229e-07
8.78741e-09
-2.10548e-07
9.89892e-09
-2.08261e-07
1.13139e-08
-2.0494e-07
1.30862e-08
-2.00592e-07
1.49095e-08
-1.95663e-07
1.6164e-08
-1.90798e-07
1.6419e-08
-1.86834e-07
1.58095e-08
-1.84282e-07
1.49094e-08
-1.82995e-07
1.43487e-08
-1.8251e-07
1.4296e-08
-1.82474e-07
1.42712e-08
-1.83106e-07
1.36945e-08
-1.85126e-07
1.25416e-08
-1.88671e-07
1.14736e-08
-1.9292e-07
1.13688e-08
-1.96695e-07
1.24897e-08
-1.9901e-07
1.41894e-08
-1.99875e-07
1.56538e-08
-2.00169e-07
1.67634e-08
-2.0014e-07
1.81676e-08
-1.98897e-07
2.04529e-08
-1.95447e-07
2.32174e-08
-1.90026e-07
2.54271e-08
-1.84138e-07
2.65975e-08
-1.7882e-07
2.72529e-08
-1.73669e-07
2.81427e-08
-1.67958e-07
2.91507e-08
-1.62027e-07
2.94451e-08
-1.57237e-07
2.87596e-08
-1.54323e-07
2.78846e-08
-1.52308e-07
2.75862e-08
-1.50124e-07
2.76387e-08
-1.48274e-07
2.74268e-08
-1.47657e-07
2.71115e-08
-1.47757e-07
2.74076e-08
-1.47376e-07
2.84e-08
-1.4651e-07
2.94558e-08
-1.46014e-07
3.03061e-08
-1.45987e-07
3.1321e-08
-1.45834e-07
3.26077e-08
-1.45595e-07
3.37677e-08
-1.45916e-07
3.46293e-08
-1.46752e-07
3.5453e-08
-1.47673e-07
3.63606e-08
-1.4868e-07
3.72967e-08
-1.49519e-07
3.8413e-08
-1.49522e-07
3.97936e-08
-1.48616e-07
4.14124e-08
-1.46554e-07
4.35141e-08
-1.42096e-07
4.61682e-08
-1.35285e-07
4.89777e-08
-1.26926e-07
5.19917e-08
-1.15918e-07
5.55487e-08
-1.01913e-07
5.90461e-08
-8.70065e-08
6.20718e-08
-7.09003e-08
6.52252e-08
-5.25635e-08
6.81025e-08
-3.50653e-08
6.99543e-08
-1.87494e-08
7.15739e-08
-1.86351e-09
7.28516e-08
1.22827e-08
7.28944e-08
2.3394e-08
7.27111e-08
3.36203e-08
7.21537e-08
3.91558e-08
7.05995e-08
4.09152e-08
6.89031e-08
3.97439e-08
6.66397e-08
3.09093e-08
6.30103e-08
1.56479e-08
5.8521e-08
-1.0961e-08
5.13903e-08
-5.58926e-08
4.07061e-08
-1.24918e-07
2.4944e-08
-2.33894e-07
1.66639e-09
-3.94454e-07
-2.89842e-08
-6.21359e-07
-6.52906e-08
-9.11377e-07
-9.74554e-08
-1.22486e-06
-1.0514e-07
-1.44956e-06
-5.33022e-08
-1.37842e-06
9.95982e-08
-7.7612e-07
3.68398e-07
3.41188e-07
6.68817e-07
1.19151e-06
7.3802e-07
2.18472e-07
2.9847e-07
2.00213e-07
3.48782e-07
-7.89666e-07
8.08757e-07
4.80122e-07
-2.48633e-07
-5.96475e-07
1.15989e-06
2.01199e-07
1.53274e-06
7.54177e-08
7.71491e-07
-2.03339e-07
1.18325e-06
-3.48053e-07
8.23567e-07
-3.16023e-07
1.18302e-07
-1.81151e-07
-4.0663e-07
-3.25747e-08
-6.10815e-07
7.7197e-08
-5.83401e-07
1.35522e-07
-4.50653e-07
1.53637e-07
-3.0225e-07
1.48243e-07
-1.80045e-07
1.33486e-07
-9.25098e-08
1.17995e-07
-3.83844e-08
1.05184e-07
-4.92711e-09
9.68484e-08
1.31184e-08
9.15415e-08
2.29695e-08
8.92459e-08
3.0931e-08
8.89493e-08
3.63529e-08
8.9346e-08
4.32092e-08
9.10872e-08
5.28175e-08
9.28974e-08
6.22967e-08
9.43402e-08
7.4933e-08
9.64043e-08
9.04542e-08
9.75499e-08
1.05052e-07
9.79098e-08
1.21564e-07
9.84795e-08
1.39738e-07
9.79064e-08
1.55547e-07
9.61742e-08
1.70937e-07
9.45625e-08
1.86763e-07
9.23264e-08
1.99421e-07
8.88496e-08
2.09141e-07
8.55634e-08
2.18598e-07
8.26699e-08
2.26164e-07
7.90044e-08
2.29947e-07
7.5296e-08
2.32556e-07
7.27736e-08
2.35508e-07
7.05695e-08
2.36632e-07
6.7926e-08
2.3579e-07
6.59456e-08
2.35691e-07
6.51503e-08
2.36763e-07
6.43082e-08
2.36908e-07
6.2844e-08
2.36067e-07
6.18187e-08
2.36342e-07
6.15739e-08
2.37841e-07
6.09166e-08
2.38545e-07
5.93392e-08
2.3809e-07
5.7874e-08
2.38197e-07
5.71354e-08
2.3957e-07
5.63368e-08
2.40989e-07
5.48387e-08
2.41643e-07
5.3285e-08
2.42605e-07
5.25693e-08
2.45286e-07
5.24794e-08
2.49488e-07
5.20975e-08
2.53926e-07
5.1197e-08
2.58278e-07
5.05044e-08
2.63465e-07
5.04522e-08
2.69923e-07
5.04556e-08
2.76804e-07
4.96738e-08
2.82938e-07
4.81233e-08
2.87743e-07
4.64462e-08
2.91745e-07
4.4973e-08
2.95381e-07
4.34316e-08
2.98112e-07
4.13661e-08
2.99249e-07
3.86651e-08
2.98541e-07
3.58393e-08
2.9657e-07
3.35151e-08
2.94218e-07
3.18177e-08
2.91805e-07
3.03821e-08
2.89463e-07
2.88504e-08
2.87194e-07
2.73863e-08
2.85123e-07
2.63978e-08
2.8396e-07
2.60204e-08
2.84224e-07
2.61052e-08
2.85859e-07
2.63092e-08
2.88588e-07
2.62631e-08
2.91983e-07
2.58322e-08
2.95755e-07
2.51341e-08
2.99844e-07
2.43667e-08
3.04082e-07
2.36203e-08
3.08171e-07
2.2732e-08
3.11929e-07
2.14151e-08
3.15088e-07
1.96046e-08
3.17072e-07
1.74519e-08
3.17625e-07
1.51008e-08
3.16986e-07
1.27383e-08
3.15244e-07
1.05633e-08
3.12607e-07
8.65504e-09
3.09555e-07
7.05125e-09
3.06288e-07
5.72194e-09
3.03079e-07
4.5784e-09
3.00325e-07
3.66074e-09
2.98082e-07
3.0325e-09
2.96543e-07
2.62775e-09
2.96069e-07
2.39344e-09
2.96641e-07
2.30391e-09
2.98036e-07
2.21663e-09
3.00052e-07
1.92972e-09
3.02464e-07
1.33603e-09
3.04927e-07
4.29967e-10
3.07011e-07
-7.83187e-10
3.08499e-07
-2.2936e-09
3.09286e-07
-4.03532e-09
3.09126e-07
-5.91768e-09
3.07908e-07
-7.83425e-09
3.05734e-07
-9.66324e-09
3.02768e-07
-1.13466e-08
2.99334e-07
-1.28426e-08
2.95762e-07
-1.40503e-08
2.92246e-07
-1.49277e-08
2.89066e-07
-1.5548e-08
2.8649e-07
-1.59957e-08
2.84568e-07
-1.633e-08
2.83269e-07
-1.66184e-08
2.82603e-07
-1.69287e-08
2.82553e-07
-1.73175e-08
2.82825e-07
-1.78589e-08
2.82891e-07
-1.86549e-08
2.82538e-07
-1.9743e-08
2.8185e-07
-2.1006e-08
2.80693e-07
-2.23001e-08
2.78881e-07
-2.36125e-08
2.7651e-07
-2.49539e-08
2.73727e-07
-2.62435e-08
2.70669e-07
-2.73881e-08
2.67596e-07
-2.83384e-08
2.64671e-07
-2.90886e-08
2.619e-07
-2.96968e-08
2.59342e-07
-3.02421e-08
2.57095e-07
-3.07529e-08
2.55165e-07
-3.12396e-08
2.53398e-07
-3.17701e-08
2.51491e-07
-3.24461e-08
2.49248e-07
-3.33099e-08
2.46744e-07
-3.42897e-08
2.44116e-07
-3.52613e-08
2.41396e-07
-3.61623e-08
2.38559e-07
-3.70083e-08
2.35531e-07
-3.78312e-08
2.32293e-07
-3.86348e-08
2.29022e-07
-3.93762e-08
2.25988e-07
-3.99843e-08
2.23316e-07
-4.04379e-08
2.20934e-07
-4.08178e-08
2.1867e-07
-4.12564e-08
2.16391e-07
-4.18431e-08
2.1404e-07
-4.25753e-08
2.1155e-07
-4.33865e-08
2.08794e-07
-4.42119e-08
2.05675e-07
-4.50265e-08
2.02209e-07
-4.58327e-08
1.98538e-07
-4.66244e-08
1.94855e-07
-4.7366e-08
1.91285e-07
-4.80145e-08
1.87809e-07
-4.85661e-08
1.84343e-07
-4.90582e-08
1.80852e-07
-4.95253e-08
1.77428e-07
-4.9976e-08
1.74249e-07
-5.03967e-08
1.71394e-07
-5.07719e-08
1.68745e-07
-5.11239e-08
1.66105e-07
-5.15245e-08
1.63299e-07
-5.20405e-08
1.60209e-07
-5.26814e-08
1.56863e-07
-5.34002e-08
1.53423e-07
-5.41038e-08
1.49974e-07
-5.46898e-08
1.46476e-07
-5.51411e-08
1.42939e-07
-5.55419e-08
1.39427e-07
-5.59672e-08
1.35929e-07
-5.64187e-08
1.32415e-07
-5.68758e-08
1.28904e-07
-5.73225e-08
1.2536e-07
-5.77257e-08
1.21725e-07
-5.8061e-08
1.18101e-07
-5.83426e-08
1.14641e-07
-5.85919e-08
1.11347e-07
-5.88234e-08
1.08138e-07
-5.90698e-08
1.04977e-07
-5.93594e-08
1.01765e-07
-5.96775e-08
9.83329e-08
-6.00021e-08
9.46513e-08
-6.03389e-08
9.08903e-08
-6.06724e-08
8.72326e-08
-6.09388e-08
8.37663e-08
-6.10941e-08
8.04894e-08
-6.11675e-08
7.72967e-08
-6.12306e-08
7.40422e-08
-6.1348e-08
7.06662e-08
-6.15476e-08
6.71757e-08
-6.18033e-08
6.35496e-08
-6.20561e-08
5.97886e-08
-6.22613e-08
5.59938e-08
-6.23896e-08
5.22912e-08
-6.24026e-08
4.87477e-08
-6.22851e-08
4.54045e-08
-6.20925e-08
4.22804e-08
-6.19157e-08
3.93034e-08
-6.18111e-08
3.63278e-08
-6.17874e-08
3.32201e-08
-6.18262e-08
2.98764e-08
-6.18921e-08
2.62426e-08
-6.19493e-08
2.24094e-08
-6.19767e-08
1.86083e-08
-6.1944e-08
1.50269e-08
-6.18023e-08
1.16881e-08
-6.15404e-08
8.52559e-09
-6.12231e-08
5.45109e-09
-6.09334e-08
2.33719e-09
-6.07017e-08
-9.17265e-10
-6.05199e-08
-4.27463e-09
-6.03758e-08
-7.62971e-09
-6.02343e-08
-1.09737e-08
-6.00313e-08
-1.43465e-08
-5.97279e-08
-1.76758e-08
-5.9344e-08
-2.08389e-08
-5.89211e-08
-2.3845e-08
-5.84905e-08
-2.68083e-08
-5.80864e-08
-2.97994e-08
-5.77406e-08
-3.28529e-08
-5.74466e-08
-3.60315e-08
-5.71603e-08
-3.93423e-08
-5.68414e-08
-4.26728e-08
-5.647e-08
-4.59168e-08
-5.60385e-08
-4.90811e-08
-5.55611e-08
-5.22164e-08
-5.50839e-08
-5.53474e-08
-5.46466e-08
-5.85035e-08
-5.42342e-08
-6.1712e-08
-5.37916e-08
-6.49292e-08
-5.32801e-08
-6.80473e-08
-5.26937e-08
-7.09751e-08
-5.20358e-08
-7.3686e-08
-5.1321e-08
-7.62049e-08
-5.05942e-08
-7.85808e-08
-4.99149e-08
-8.08957e-08
-4.93191e-08
-8.32645e-08
-4.8802e-08
-8.57888e-08
-4.8338e-08
-8.85143e-08
-4.78978e-08
-9.14304e-08
-4.74511e-08
-9.44966e-08
-4.69758e-08
-9.76523e-08
-4.64673e-08
-1.00831e-07
-4.59311e-08
-1.03994e-07
-4.53636e-08
-1.0713e-07
-4.47416e-08
-1.10199e-07
-4.40328e-08
-1.13111e-07
-4.32166e-08
-1.15751e-07
-4.23017e-08
-1.18039e-07
-4.13355e-08
-1.20003e-07
-4.03937e-08
-1.21784e-07
-3.95507e-08
-1.23576e-07
-3.88481e-08
-1.25542e-07
-3.82802e-08
-1.27746e-07
-3.77993e-08
-1.3016e-07
-3.73353e-08
-1.32729e-07
-3.68241e-08
-1.35405e-07
-3.62306e-08
-1.3814e-07
-3.55536e-08
-1.40854e-07
-3.48101e-08
-1.43429e-07
-3.40128e-08
-1.45755e-07
-3.31669e-08
-1.47797e-07
-3.22786e-08
-1.49582e-07
-3.13579e-08
-1.5116e-07
-3.04255e-08
-1.5262e-07
-2.95291e-08
-1.54088e-07
-2.87377e-08
-1.55716e-07
-2.80935e-08
-1.57681e-07
-2.75686e-08
-1.60094e-07
-2.70955e-08
-1.62873e-07
-2.66216e-08
-1.65762e-07
-2.61087e-08
-1.68539e-07
-2.55022e-08
-1.71134e-07
-2.47458e-08
-1.73504e-07
-2.38263e-08
-1.75461e-07
-2.27599e-08
-1.76787e-07
-2.15611e-08
-1.77489e-07
-2.02701e-08
-1.77714e-07
-1.89816e-08
-1.77564e-07
-1.78071e-08
-1.77214e-07
-1.68231e-08
-1.76977e-07
-1.6076e-08
-1.77091e-07
-1.55844e-08
-1.77656e-07
-1.53065e-08
-1.78798e-07
-1.51578e-08
-1.80667e-07
-1.50584e-08
-1.83253e-07
-1.49329e-08
-1.86395e-07
-1.46954e-08
-1.89885e-07
-1.4274e-08
-1.93452e-07
-1.36237e-08
-1.96763e-07
-1.2699e-08
-1.99539e-07
-1.14882e-08
-2.01552e-07
-1.00638e-08
-2.02532e-07
-8.52685e-09
-2.02403e-07
-6.94954e-09
-2.01375e-07
-5.40804e-09
-1.99644e-07
-3.99786e-09
-1.97381e-07
-2.78948e-09
-1.94917e-07
-1.8293e-09
-1.92606e-07
-1.14739e-09
-1.90737e-07
-7.07993e-10
-1.89603e-07
-4.44911e-10
-1.8939e-07
-3.44409e-10
-1.9007e-07
-3.95454e-10
-1.91609e-07
-5.28563e-10
-1.94055e-07
-6.76756e-10
-1.97244e-07
-7.69063e-10
-2.00785e-07
-6.41649e-10
-2.04395e-07
-1.18937e-10
-2.07773e-07
8.68118e-10
-2.10409e-07
2.31172e-09
-2.11933e-07
4.10998e-09
-2.12203e-07
6.03994e-09
-2.11215e-07
7.89133e-09
-2.09242e-07
9.56698e-09
-2.06565e-07
1.10611e-08
-2.03258e-07
1.24614e-08
-1.9948e-07
1.38593e-08
-1.95447e-07
1.51565e-08
-1.9134e-07
1.61004e-08
-1.87538e-07
1.65005e-08
-1.84594e-07
1.63658e-08
-1.82897e-07
1.59575e-08
-1.82464e-07
1.56248e-08
-1.83022e-07
1.55056e-08
-1.84283e-07
1.54934e-08
-1.86195e-07
1.54296e-08
-1.88789e-07
1.53236e-08
-1.91917e-07
1.54905e-08
-1.95147e-07
1.63248e-08
-1.97685e-07
1.78965e-08
-1.98872e-07
1.98902e-08
-1.98804e-07
2.19017e-08
-1.97885e-07
2.38388e-08
-1.96118e-07
2.59495e-08
-1.93171e-07
2.83592e-08
-1.88805e-07
3.07647e-08
-1.83457e-07
3.26883e-08
-1.77939e-07
3.39636e-08
-1.72702e-07
3.48621e-08
-1.677e-07
3.56924e-08
-1.62725e-07
3.6331e-08
-1.58118e-07
3.64814e-08
-1.54615e-07
3.62346e-08
-1.52259e-07
3.60681e-08
-1.50369e-07
3.62642e-08
-1.48649e-07
3.66484e-08
-1.47425e-07
3.70517e-08
-1.46811e-07
3.76905e-08
-1.46356e-07
3.88037e-08
-1.457e-07
4.02271e-08
-1.45055e-07
4.16476e-08
-1.44772e-07
4.30489e-08
-1.44755e-07
4.45482e-08
-1.44796e-07
4.60512e-08
-1.45137e-07
4.73988e-08
-1.45913e-07
4.86412e-08
-1.46809e-07
4.99037e-08
-1.47631e-07
5.12113e-08
-1.48221e-07
5.26709e-08
-1.48005e-07
5.44001e-08
-1.46606e-07
5.63769e-08
-1.43959e-07
5.86882e-08
-1.39365e-07
6.14853e-08
-1.32344e-07
6.46024e-08
-1.23421e-07
6.78559e-08
-1.12521e-07
7.14344e-08
-9.89924e-08
7.51624e-08
-8.38642e-08
7.85554e-08
-6.80553e-08
8.17957e-08
-5.08355e-08
8.49185e-08
-3.35335e-08
8.73223e-08
-1.75827e-08
8.91923e-08
-1.93024e-09