/*--------------------------------*- C++ -*----------------------------------*\
| =========                 |                                                 |
| \\      /  F ield         | OpenFOAM: The Open Source CFD Toolbox           |
|  \\    /   O peration     | Version:  2106                                  |
|   \\  /    A nd           | Website:  www.openfoam.com                      |
|    \\/     M anipulation  |                                                 |
\*---------------------------------------------------------------------------*/
FoamFile
{
    version     2.0;
    format      ascii;
    arch        "LSB;label=32;scalar=64";
    class       surfaceScalarField;
    location    "0.015";
    object      phi;
}
// * * * * * * * * * * * * * * * * * * * * * * * * * * * * * * * * * * * * * //

dimensions      [0 3 -1 0 0 0 0];

oriented        oriented;

internalField   nonuniform List<scalar> 
799
(
2.06278e-32
5.12438e-32
6.72119e-32
5.91313e-32
3.66314e-32
-2.74686e-32
-8.43347e-32
-1.27725e-31
-1.35314e-31
-9.51334e-32
-3.69566e-32
2.76535e-32
6.84127e-32
8.03872e-32
6.09764e-32
2.38631e-32
-2.49754e-32
-7.53415e-32
-1.13391e-31
-1.39156e-31
-1.28842e-31
-9.06229e-32
-2.73933e-32
4.53752e-32
8.78961e-32
9.88549e-32
5.89801e-32
-9.92907e-33
-7.45788e-32
-1.25599e-31
-1.26953e-31
-9.82254e-32
-5.05369e-32
5.7966e-33
3.19006e-32
4.41268e-32
2.80108e-32
-8.86962e-33
-3.77934e-32
-7.3591e-32
-8.17212e-32
-6.84589e-32
-4.42603e-32
3.13866e-33
2.90195e-32
3.99172e-32
2.45646e-32
-2.38787e-32
-6.33556e-32
-9.92065e-32
-1.00735e-31
-6.65229e-32
-2.3006e-32
3.16053e-32
5.63006e-32
5.03984e-32
1.75275e-32
-4.13578e-32
-8.65796e-32
-1.11569e-31
-9.82676e-32
-4.50021e-32
1.71935e-32
7.21989e-32
8.50644e-32
4.43566e-32
-2.94201e-32
-1.12935e-31
-1.58375e-31
-1.40879e-31
-6.95368e-32
3.21683e-32
1.08559e-31
1.25036e-31
7.79009e-32
-1.59371e-32
-1.02508e-31
-1.47204e-31
-1.3576e-31
-7.65723e-32
-1.0394e-32
3.85444e-32
5.3838e-32
3.87571e-32
1.45609e-32
-1.14638e-32
-3.11218e-32
-4.93474e-32
-6.97427e-32
-8.21018e-32
-8.02359e-32
-4.92195e-32
3.22415e-33
5.6514e-32
8.90502e-32
7.00271e-32
1.12983e-32
-7.06199e-32
-1.40126e-31
-1.53637e-31
-1.18505e-31
-3.28777e-32
5.7802e-32
1.10891e-31
1.19779e-31
6.16879e-32
-1.77184e-32
-9.16457e-32
-1.35713e-31
-1.18851e-31
-7.51489e-32
-1.25212e-32
3.39927e-32
4.24427e-32
3.08672e-32
1.14352e-34
-1.68579e-32
-1.44877e-32
-1.87261e-33
1.18991e-32
1.86259e-33
-2.87426e-32
-7.038e-32
-1.013e-31
-9.99708e-32
-6.53883e-32
-6.10505e-33
5.3276e-32
9.1014e-32
9.63044e-32
6.62921e-32
1.38547e-32
-4.7165e-32
-1.02547e-31
-1.34468e-31
-1.37259e-31
-1.03595e-31
-3.95032e-32
3.4195e-32
9.89329e-32
1.24182e-31
1.01583e-31
3.83415e-32
-4.58872e-32
-1.10762e-31
-1.37295e-31
-1.13838e-31
-5.36341e-32
9.05152e-33
5.23146e-32
5.30497e-32
1.84242e-32
-2.86365e-32
-6.57886e-32
-6.63791e-32
-3.35458e-32
1.71863e-32
5.88357e-32
6.15726e-32
2.14561e-32
-4.97353e-32
-1.1666e-31
-1.43686e-31
-1.12875e-31
-3.27822e-32
5.64694e-32
1.14447e-31
1.06415e-31
3.97825e-32
-5.03089e-32
-1.21221e-31
-1.28262e-31
-8.20273e-32
-4.72415e-33
5.77929e-32
6.40327e-32
2.78835e-32
-4.11833e-32
-9.09889e-32
-9.33595e-32
-5.73344e-32
1.34038e-32
6.26213e-32
7.58062e-32
4.64706e-32
-2.11702e-32
-7.74134e-32
-1.1416e-31
-1.06778e-31
-6.00318e-32
-5.02547e-33
5.05536e-32
7.32019e-32
6.42614e-32
3.22842e-32
-1.67172e-32
-5.48045e-32
-7.95454e-32
-8.38767e-32
-6.6851e-32
-4.10208e-32
-6.26002e-33
2.66994e-32
4.83559e-32
5.46874e-32
3.52189e-32
-4.77034e-33
-5.14404e-32
-8.83423e-32
-9.17555e-32
-5.80367e-32
-2.2767e-34
5.669e-32
7.74344e-32
4.86561e-32
-1.94459e-32
-9.50138e-32
-1.32552e-31
-1.06834e-31
-2.4515e-32
7.81454e-32
1.44648e-31
1.34553e-31
4.78421e-32
-8.1427e-32
-1.86328e-31
-2.11443e-31
-1.44608e-31
-8.56738e-33
1.25226e-31
1.93458e-31
1.68194e-31
5.44878e-32
-8.22785e-32
-1.82527e-31
-2.04314e-31
-1.35136e-31
-2.32007e-32
8.56211e-32
1.42779e-31
1.24017e-31
5.39245e-32
-3.84576e-32
-1.08035e-31
-1.26121e-31
-9.5492e-32
-3.31922e-32
2.64522e-32
5.4409e-32
4.1245e-32
1.19317e-33
-4.16091e-32
-5.6655e-32
-3.32403e-32
9.79065e-33
5.04285e-32
5.25659e-32
8.69979e-33
-5.65998e-32
-1.1561e-31
-1.24775e-31
-7.63872e-32
3.68936e-33
8.28455e-32
1.14226e-31
8.54541e-32
1.89662e-32
-5.76605e-32
-1.02402e-31
-1.00937e-31
-7.0954e-32
-2.50769e-32
5.93183e-33
1.5193e-32
1.66719e-32
7.60554e-33
6.14417e-33
5.27524e-33
-4.74561e-33
-1.37731e-32
-2.96821e-32
-3.61052e-32
-3.13581e-32
-2.6865e-32
-2.36325e-32
-3.50233e-32
-5.01659e-32
-5.27246e-32
-3.09563e-32
1.67932e-32
6.67668e-32
8.77366e-32
5.52366e-32
-2.32108e-32
-1.15829e-31
-1.71025e-31
-1.53924e-31
-7.10608e-32
4.39559e-32
1.24859e-31
1.3328e-31
6.66289e-32
-4.29512e-32
-1.28089e-31
-1.54425e-31
-1.1028e-31
-2.64093e-32
4.14135e-32
6.69972e-32
3.63934e-32
-1.95875e-32
-6.18269e-32
-7.24992e-32
-4.28093e-32
-4.7994e-33
1.62016e-32
7.88907e-33
-3.03268e-32
-6.47128e-32
-7.77353e-32
-5.82819e-32
-1.25615e-32
2.43582e-32
3.8435e-32
1.50372e-32
-3.42382e-32
-7.44092e-32
-9.10107e-32
-6.18354e-32
-2.92651e-33
5.35551e-32
8.78318e-32
6.74614e-32
1.03355e-32
-5.88217e-32
-1.09414e-31
-9.92365e-32
-4.02941e-32
5.43534e-32
1.41275e-31
1.67785e-31
1.19372e-31
-1.15857e-33
-1.90232e-31
-2.29119e-31
-1.68107e-31
7.10548e-31
2.64399e-30
5.76165e-30
1.21327e-29
1.43031e-29
1.6571e-29
-1.02593e-30
-4.43071e-29
-9.62142e-29
-2.02341e-28
-1.93516e-28
-1.33257e-28
1.54231e-28
7.97932e-28
1.16277e-27
1.80473e-27
1.04262e-27
-7.75765e-28
-3.05156e-27
-7.55845e-27
-7.22933e-27
-5.94748e-27
1.73142e-27
1.6859e-26
2.26501e-26
3.30305e-26
1.66295e-26
-1.36302e-26
-4.1027e-26
-9.05157e-26
-7.13429e-26
-4.22157e-26
3.1549e-26
1.54603e-25
1.62713e-25
1.91975e-25
5.42887e-26
-1.45623e-25
-2.41585e-25
-4.15734e-25
-2.36547e-25
-3.16671e-26
2.1913e-25
5.89171e-25
4.55132e-25
3.8301e-25
-3.71086e-26
-5.44027e-25
-5.80074e-25
-7.54277e-25
-2.54603e-25
2.23603e-25
5.06823e-25
9.15268e-25
5.06834e-25
2.23619e-25
-2.54589e-25
-7.54272e-25
-5.80079e-25
-5.44039e-25
-3.71224e-26
3.83001e-25
4.55131e-25
5.89176e-25
2.19138e-25
-3.1661e-26
-2.36545e-25
-4.15736e-25
-2.4159e-25
-1.45627e-25
5.42855e-26
1.91974e-25
1.62714e-25
1.54604e-25
3.15498e-26
-4.22155e-26
-7.13431e-26
-9.05158e-26
-4.10274e-26
-1.36305e-26
1.66291e-26
3.303e-26
2.26498e-26
1.68586e-26
1.73119e-27
-5.94761e-27
-7.22938e-27
-7.55845e-27
-3.05159e-27
-7.75817e-28
1.0425e-27
1.80458e-27
1.1626e-27
7.97769e-28
1.54132e-28
-1.33285e-28
-1.93452e-28
-2.02221e-28
-9.61036e-29
-4.42515e-29
-1.08706e-30
1.64163e-29
1.41047e-29
1.19642e-29
5.70959e-30
2.717e-30
8.92173e-31
4.96281e-32
-6.34635e-32
-1.20559e-31
-5.34716e-32
-2.02477e-32
1.28044e-33
2.34422e-33
2.24943e-33
1.01924e-32
4.00563e-32
8.42601e-32
1.19251e-31
1.24144e-31
8.45666e-32
9.73798e-33
-6.48121e-32
-1.11921e-31
-1.0487e-31
-5.02976e-32
2.24375e-32
8.77306e-32
1.0976e-31
9.08781e-32
3.88485e-32
-2.56969e-32
-7.10758e-32
-9.11191e-32
-7.19952e-32
-2.48851e-32
3.0551e-32
7.74156e-32
8.88335e-32
6.02801e-32
1.84618e-33
-6.37453e-32
-1.02073e-31
-9.05022e-32
-3.51392e-32
4.55534e-32
1.08535e-31
1.1894e-31
7.79234e-32
-7.66272e-33
-8.64727e-32
-1.22163e-31
-1.04111e-31
-2.75273e-32
5.58031e-32
1.15194e-31
1.23393e-31
6.7468e-32
-1.29504e-32
-9.21892e-32
-1.28554e-31
-1.00275e-31
-2.54298e-32
7.19636e-32
1.42656e-31
1.49879e-31
8.83821e-32
-2.16336e-32
-1.29848e-31
-1.81143e-31
-1.50761e-31
-4.67621e-32
8.38919e-32
1.76114e-31
1.90733e-31
1.18407e-31
-2.29231e-33
-1.13645e-31
-1.6769e-31
-1.435e-31
-6.37904e-32
3.39987e-32
1.01803e-31
1.19853e-31
8.89358e-32
2.73918e-32
-2.85775e-32
-6.74869e-32
-6.98481e-32
-4.58665e-32
-1.03594e-32
2.83315e-32
4.1099e-32
3.84381e-32
1.379e-32
-1.61581e-32
-2.56307e-32
-2.42893e-32
5.57617e-33
3.20869e-32
3.91468e-32
2.8187e-32
-1.65344e-32
-5.1531e-32
-6.77329e-32
-5.32271e-32
-1.11644e-33
4.46221e-32
7.68295e-32
7.33614e-32
3.53886e-32
-3.48774e-33
-3.86375e-32
-4.90029e-32
-4.26338e-32
-3.9623e-32
-3.5571e-32
-3.72201e-32
-2.37649e-32
1.81529e-32
7.18519e-32
1.22779e-31
1.26494e-31
6.44133e-32
-4.23359e-32
-1.61607e-31
-2.19508e-31
-1.82711e-31
-5.98793e-32
1.10976e-31
2.33397e-31
2.57025e-31
1.62005e-31
-2.08787e-32
-1.90364e-31
-2.8355e-31
-2.45926e-31
-9.22415e-32
9.14899e-32
2.37804e-31
2.63785e-31
1.66137e-31
1.37411e-33
-1.66761e-31
-2.42568e-31
-2.08708e-31
-8.75568e-32
6.7974e-32
1.68817e-31
1.91579e-31
1.28938e-31
1.81308e-32
-7.61796e-32
-1.34139e-31
-1.30346e-31
-8.58822e-32
-3.02559e-32
2.73108e-32
5.98407e-32
7.74216e-32
7.6634e-32
5.60516e-32
2.84127e-32
-1.2748e-32
-4.85108e-32
-7.43138e-32
-8.33788e-32
-6.96002e-32
-4.32657e-32
-3.85336e-33
3.36e-32
6.60752e-32
8.14683e-32
7.35841e-32
4.60162e-32
-4.30856e-33
-5.02803e-32
-8.72653e-32
-9.69615e-32
-7.31011e-32
-3.74924e-32
1.38193e-32
4.92122e-32
6.6753e-32
6.89393e-32
4.3192e-32
1.55775e-32
-2.21196e-32
-5.56062e-32
-7.01956e-32
-7.35179e-32
-4.77999e-32
-1.09221e-32
2.81186e-32
5.95368e-32
6.26085e-32
4.66458e-32
1.12592e-32
-2.76657e-32
-5.44103e-32
-6.57178e-32
-5.40189e-32
-2.81773e-32
4.09561e-33
3.16936e-32
4.4829e-32
3.8859e-32
1.84378e-32
-6.54666e-33
-2.57563e-32
-2.6134e-32
-1.77332e-32
-4.11367e-33
1.33724e-34
-1.30196e-32
-2.42411e-32
-3.12768e-32
-1.12938e-32
2.79442e-32
6.11423e-32
7.51278e-32
4.03828e-32
-2.11544e-32
-8.35447e-32
-1.13809e-31
-8.17836e-32
-1.10666e-32
7.35796e-32
1.21859e-31
1.07515e-31
4.31438e-32
-4.64736e-32
-1.05233e-31
-1.10753e-31
-6.05254e-32
1.95655e-32
7.90812e-32
9.68126e-32
5.92755e-32
-6.9514e-33
-6.19487e-32
-8.26693e-32
-5.07257e-32
8.40052e-33
6.37182e-32
8.82244e-32
6.08496e-32
2.67486e-33
-6.16679e-32
-1.01241e-31
-9.03359e-32
-4.10513e-32
3.01965e-32
9.26267e-32
1.14906e-31
9.70142e-32
4.08169e-32
-3.10045e-32
-8.73168e-32
-1.18551e-31
-1.07644e-31
-6.18735e-32
5.69409e-34
6.96261e-32
1.14666e-31
1.26631e-31
9.91342e-32
3.18644e-32
-4.65127e-32
-1.17153e-31
-1.48421e-31
-1.23231e-31
-5.21265e-32
4.62675e-32
1.26868e-31
1.56629e-31
1.22127e-31
3.32364e-32
-6.69607e-32
-1.35802e-31
-1.42054e-31
-8.21807e-32
1.16636e-32
9.57838e-32
1.31283e-31
1.00409e-31
2.41794e-32
-6.08609e-32
-1.13943e-31
-1.05506e-31
-4.87132e-32
3.32742e-32
9.81256e-32
1.09817e-31
7.51865e-32
7.67363e-34
-6.81383e-32
-9.70751e-32
-8.48402e-32
-2.29487e-32
4.164e-32
8.413e-32
9.22927e-32
4.95043e-32
-2.0147e-33
-5.06664e-32
-7.33847e-32
-5.41156e-32
-2.13018e-32
2.35167e-32
5.40148e-32
5.93675e-32
5.10341e-32
2.64548e-32
4.29874e-33
-8.8999e-33
-1.6223e-32
-1.42395e-32
-1.18167e-32
-1.36049e-32
-1.23718e-32
-1.21567e-32
-2.20278e-33
2.08249e-32
4.49908e-32
7.44492e-32
8.33678e-32
6.98008e-32
3.51347e-32
-2.24245e-32
-6.55147e-32
-9.07151e-32
-7.51849e-32
-2.09625e-32
4.3968e-32
1.08106e-31
1.32549e-31
1.18297e-31
6.74768e-32
4.86448e-33
-4.30698e-32
-6.24641e-32
-4.0015e-32
-8.1032e-33
4.19251e-32
6.36084e-32
6.55674e-32
5.98994e-32
1.64531e-32
8.45077e-33
-2.26169e-32
-2.74058e-32
-6.05904e-33
)
;

boundaryField
{
    left
    {
        type            calculated;
        value           uniform 0;
    }
    right
    {
        type            calculated;
        value           uniform 0;
    }
    empty
    {
        type            empty;
        value           nonuniform List<scalar> 0();
    }
}


// ************************************************************************* //
