/*--------------------------------*- C++ -*----------------------------------*\
| =========                 |                                                 |
| \\      /  F ield         | OpenFOAM: The Open Source CFD Toolbox           |
|  \\    /   O peration     | Version:  2106                                  |
|   \\  /    A nd           | Website:  www.openfoam.com                      |
|    \\/     M anipulation  |                                                 |
\*---------------------------------------------------------------------------*/
FoamFile
{
    version     2.0;
    format      ascii;
    arch        "LSB;label=32;scalar=64";
    class       volVectorField;
    location    "0.32";
    object      U;
}
// * * * * * * * * * * * * * * * * * * * * * * * * * * * * * * * * * * * * * //

dimensions      [0 1 -1 0 0 0 0];

internalField   nonuniform List<vector> 
11200
(
(0.662462404834 0.150569442985 0)
(0.558948676552 0.103243388674 0)
(0.383850743245 0.0513512245025 0)
(0.283747604711 0.0248708555182 0)
(0.23207528345 0.0124170454194 0)
(0.201908604208 0.00662281695179 0)
(0.183197954534 0.00380291448188 0)
(0.171276513991 0.00231587009195 0)
(0.163510335041 0.00146450655816 0)
(0.158388801124 0.000944892410723 0)
(0.155006664661 0.000615176890299 0)
(0.152786711336 0.00040223380957 0)
(0.151346562387 0.000264232228418 0)
(0.15042832612 0.000175250159987 0)
(0.149856722275 0.000118360674374 0)
(0.149512521097 8.21599689327e-05 0)
(0.149314960451 5.88658675187e-05 0)
(0.149209598087 4.33156212383e-05 0)
(0.149159737703 3.29344126048e-05 0)
(0.14914249588 2.81860587836e-05 0)
(0.149144648443 2.76840601215e-05 0)
(0.149156919596 2.98897291468e-05 0)
(0.149172535731 3.30501069557e-05 0)
(0.149188077099 3.59657039038e-05 0)
(0.14920227931 3.86012171514e-05 0)
(0.149214542455 4.10402974999e-05 0)
(0.149224698846 4.33175902867e-05 0)
(0.149232855317 4.54642408858e-05 0)
(0.149239248516 4.75195156794e-05 0)
(0.149244160416 4.95304511941e-05 0)
(0.149247876038 5.15590466427e-05 0)
(0.149250662823 5.36962827082e-05 0)
(0.149252717876 5.60248616378e-05 0)
(0.149254211362 5.84062617417e-05 0)
(0.149255275849 6.0767317215e-05 0)
(0.149255997862 6.30884518079e-05 0)
(0.149256474264 6.53798855338e-05 0)
(0.149256788683 6.76545398862e-05 0)
(0.149256994797 6.99240053669e-05 0)
(0.149257121845 7.21944626064e-05 0)
(0.149257190808 7.44670215262e-05 0)
(0.149257218912 7.67426513343e-05 0)
(0.149257218246 7.90210391074e-05 0)
(0.14925719751 8.13010226462e-05 0)
(0.149257162912 8.35808497079e-05 0)
(0.149257119071 8.58581892352e-05 0)
(0.149257070013 8.81302756697e-05 0)
(0.149257019825 9.03940783057e-05 0)
(0.149256973029 9.26464542553e-05 0)
(0.149256934772 9.48844174217e-05 0)
(0.149256911941 9.71048296309e-05 0)
(0.149256914289 9.93047707501e-05 0)
(0.149256955125 0.000101481230111 0)
(0.149257052815 0.000103630762138 0)
(0.149257233167 0.00010574902756 0)
(0.149257532544 0.000107830463592 0)
(0.149258001982 0.000109868053991 0)
(0.14925871646 0.000111851945689 0)
(0.149259785304 0.000113769461927 0)
(0.149261366477 0.000115595754545 0)
(0.149263706589 0.000117275011378 0)
(0.149267213717 0.000118723631796 0)
(0.149272356684 0.000119981513268 0)
(0.149279782674 0.000121241367762 0)
(0.149290524418 0.000122965679998 0)
(0.149306103099 0.000125337952794 0)
(0.149328905087 0.000128118399118 0)
(0.149362625034 0.000131080228012 0)
(0.149412855054 0.000134007781309 0)
(0.149487825246 0.000136787473803 0)
(0.149599473348 0.000140695663217 0)
(0.14977063142 0.000151554400673 0)
(0.150039066121 0.000172281968105 0)
(0.150467938029 0.000202537697175 0)
(0.151193050906 0.000232469453376 0)
(0.152492061966 0.000191668748691 0)
(0.155021150891 -0.000216794509663 0)
(0.162374726463 -0.00211026576686 0)
(0.187704159504 -0.0107893472533 0)
(0.204365521901 -0.049663682177 0)
(0.965408255228 0.289214707118 0)
(0.961962861016 0.252656040099 0)
(0.82357439301 0.159021441635 0)
(0.698139369529 0.0959957311983 0)
(0.610225463771 0.0582481140959 0)
(0.548971490529 0.0362148530999 0)
(0.506588885923 0.0231612850158 0)
(0.477567263532 0.0151375152093 0)
(0.457745483265 0.0100177550754 0)
(0.444228448822 0.0066581411465 0)
(0.435053283094 0.00441555629152 0)
(0.428873098991 0.00290686588668 0)
(0.424754178878 0.00189105842557 0)
(0.422046624983 0.00121004526488 0)
(0.420297783892 0.000757163224675 0)
(0.419193170896 0.000459255535973 0)
(0.418515561968 0.000265854309795 0)
(0.418116411433 0.000142399013559 0)
(0.417895804572 6.61087769288e-05 0)
(0.417786750418 2.30913737626e-05 0)
(0.417745332646 1.40647478284e-06 0)
(0.417742052403 -1.01643098103e-05 0)
(0.417756647739 -1.37158389566e-05 0)
(0.417778604344 -1.32693708926e-05 0)
(0.417802896951 -1.08372164993e-05 0)
(0.417826266253 -7.49421419533e-06 0)
(0.417847018913 -3.87790872983e-06 0)
(0.417864556246 -3.58375957811e-07 0)
(0.417878882135 2.86292819106e-06 0)
(0.417890311961 5.68210052223e-06 0)
(0.417899317524 8.0348057826e-06 0)
(0.417906392264 9.83667010316e-06 0)
(0.41791173813 1.10055180266e-05 0)
(0.417915588982 1.18580567484e-05 0)
(0.417918322585 1.26799481137e-05 0)
(0.417920213891 1.34368413306e-05 0)
(0.417921505179 1.41107891953e-05 0)
(0.417922387766 1.47259634664e-05 0)
(0.417922987904 1.53113374175e-05 0)
(0.417923377252 1.58805567675e-05 0)
(0.417923608534 1.64340210929e-05 0)
(0.417923725132 1.6976836543e-05 0)
(0.417923757689 1.75126721816e-05 0)
(0.417923728637 1.80448158232e-05 0)
(0.417923654171 1.8576374539e-05 0)
(0.417923546394 1.910971764e-05 0)
(0.417923415754 1.96468060722e-05 0)
(0.417923272752 2.01895318818e-05 0)
(0.417923129198 2.0739965396e-05 0)
(0.41792299865 2.13002338356e-05 0)
(0.417922899045 2.18703600737e-05 0)
(0.417922855389 2.24503935094e-05 0)
(0.417922901473 2.3040244842e-05 0)
(0.41792308371 2.36394539922e-05 0)
(0.417923467321 2.42472275681e-05 0)
(0.417924145015 2.48628537932e-05 0)
(0.417925248148 2.54840671255e-05 0)
(0.41792697008 2.60989337292e-05 0)
(0.417929588441 2.66903474135e-05 0)
(0.417933492339 2.72274114006e-05 0)
(0.417939283813 2.76609004496e-05 0)
(0.417948060543 2.79407758526e-05 0)
(0.417961310386 2.82268460794e-05 0)
(0.41798117106 2.7774521636e-05 0)
(0.418010408195 2.51714454607e-05 0)
(0.41805262878 1.934653931e-05 0)
(0.418114019727 9.49370684624e-06 0)
(0.418204697673 -5.91972774949e-06 0)
(0.41834026215 -2.94174329778e-05 0)
(0.418545605412 -6.46795654554e-05 0)
(0.418862620023 -0.000115898833707 0)
(0.419360903075 -0.000188047732101 0)
(0.420153923036 -0.000307823180483 0)
(0.421445340056 -0.000532798839555 0)
(0.423626816024 -0.000999806982997 0)
(0.427417083689 -0.00209057220142 0)
(0.43423839774 -0.00485672994282 0)
(0.448265988547 -0.0122550680744 0)
(0.474647804345 -0.034244999069 0)
(0.478175577515 -0.098780316638 0)
(1.02222096612 0.23841618682 0)
(1.08213753112 0.29592665197 0)
(1.03447722792 0.239503065591 0)
(0.954615410668 0.174290163575 0)
(0.879992056872 0.121345467526 0)
(0.818614436342 0.0830993832937 0)
(0.771410850624 0.0567316663915 0)
(0.736634389926 0.0387409679162 0)
(0.711624431035 0.0264327864867 0)
(0.693916618475 0.0179731042422 0)
(0.681541408021 0.0121424475288 0)
(0.673000114771 0.00812490779407 0)
(0.667180648693 0.00536632062764 0)
(0.663271677424 0.00348444430457 0)
(0.660688504568 0.00221256100412 0)
(0.659014178264 0.00136338122672 0)
(0.657954495051 0.000805243108442 0)
(0.657304199536 0.000445915823899 0)
(0.656921778146 0.000221067584125 0)
(0.65671020957 8.55799923604e-05 0)
(0.656603341996 8.35645761587e-06 0)
(0.656561789559 -3.37212362697e-05 0)
(0.656557885349 -5.68557437015e-05 0)
(0.656571357015 -6.68749238662e-05 0)
(0.656592882515 -6.84824363468e-05 0)
(0.65661669831 -6.55610991909e-05 0)
(0.656639497157 -6.05502182188e-05 0)
(0.656659672282 -5.48604513824e-05 0)
(0.656676638489 -4.92762853288e-05 0)
(0.656690373648 -4.42047120078e-05 0)
(0.656701124224 -3.98406052796e-05 0)
(0.656709274409 -3.63024310182e-05 0)
(0.65671552013 -3.36961487281e-05 0)
(0.656720551615 -3.18574104406e-05 0)
(0.656724412294 -3.08108467214e-05 0)
(0.656727117344 -3.03038483835e-05 0)
(0.656728978449 -3.02483592685e-05 0)
(0.656730275108 -3.05593406937e-05 0)
(0.656731174755 -3.10869792234e-05 0)
(0.656731767291 -3.1748837929e-05 0)
(0.656732127026 -3.25154169193e-05 0)
(0.656732319283 -3.3351602971e-05 0)
(0.656732389167 -3.42328617774e-05 0)
(0.656732370638 -3.51400472371e-05 0)
(0.656732288344 -3.60577463942e-05 0)
(0.656732160761 -3.69751641508e-05 0)
(0.65673200395 -3.78846854019e-05 0)
(0.656731833902 -3.8780731627e-05 0)
(0.656731668023 -3.96586639147e-05 0)
(0.656731524497 -4.05128943038e-05 0)
(0.656731427656 -4.13400442854e-05 0)
(0.65673141325 -4.21361870954e-05 0)
(0.656731530255 -4.28997218115e-05 0)
(0.656731846886 -4.36339440978e-05 0)
(0.656732460095 -4.43522608696e-05 0)
(0.656733506846 -4.50853640831e-05 0)
(0.656735175125 -4.58881757171e-05 0)
(0.656737742235 -4.68557038913e-05 0)
(0.656741616829 -4.81132274071e-05 0)
(0.656747395915 -4.98792443972e-05 0)
(0.65675601131 -5.26626814111e-05 0)
(0.656769111081 -5.74715745227e-05 0)
(0.656788014027 -6.51058531994e-05 0)
(0.656814161261 -7.64321440086e-05 0)
(0.65685139357 -9.31430940049e-05 0)
(0.656906419753 -0.000117636172155 0)
(0.656988618674 -0.000153113163871 0)
(0.657111780303 -0.000204861218524 0)
(0.65729771937 -0.000281400126681 0)
(0.657581828664 -0.000396605003909 0)
(0.658022237108 -0.000574827366624 0)
(0.658708143099 -0.000863336231813 0)
(0.65978660834 -0.00135221290986 0)
(0.66151518938 -0.00221458770502 0)
(0.664336088112 -0.00381303120313 0)
(0.668945135781 -0.00694640882219 0)
(0.676368369643 -0.0133535328405 0)
(0.68861391176 -0.0268459080012 0)
(0.70524122263 -0.0563253424419 0)
(0.700497818275 -0.113097810153 0)
(1.02251475516 0.170807152144 0)
(1.10138975839 0.276496477817 0)
(1.11752426226 0.266664798343 0)
(1.09214660641 0.219901698047 0)
(1.05187815626 0.168168846696 0)
(1.01020822333 0.123567395774 0)
(0.973494687752 0.0888375207136 0)
(0.943864550494 0.0630063708126 0)
(0.92114279131 0.0442232034654 0)
(0.904284061579 0.0307423922229 0)
(0.892074854899 0.0211562936956 0)
(0.883404494199 0.0143954681877 0)
(0.877352651846 0.0096679479313 0)
(0.873197686734 0.00639383695109 0)
(0.870392907788 0.00415116456084 0)
(0.868534016724 0.00263449054161 0)
(0.867327617365 0.00162401682664 0)
(0.866564211526 0.000962675190764 0)
(0.866096451215 0.000539121343315 0)
(0.865822205929 0.000275152307681 0)
(0.865671359092 0.000117066982939 0)
(0.865595105517 2.87910535808e-05 0)
(0.865564044521 -1.93260650829e-05 0)
(0.865561233513 -4.12624027122e-05 0)
(0.865572574656 -4.76665071623e-05 0)
(0.865589578453 -4.55258827619e-05 0)
(0.865607885973 -3.91563368108e-05 0)
(0.865625223329 -3.1145370699e-05 0)
(0.865640506721 -2.29641283143e-05 0)
(0.86565336913 -1.53802487964e-05 0)
(0.865663842124 -8.72242691142e-06 0)
(0.865672129167 -3.04340755624e-06 0)
(0.865678482527 1.73532025611e-06 0)
(0.865683109946 5.46660547222e-06 0)
(0.865686429308 8.03377413549e-06 0)
(0.865688827676 9.79080826467e-06 0)
(0.865690459806 1.11443024531e-05 0)
(0.865691621991 1.22890154078e-05 0)
(0.865692490034 1.3257613693e-05 0)
(0.865693082364 1.41438203527e-05 0)
(0.865693447114 1.49387027786e-05 0)
(0.865693648781 1.56649068503e-05 0)
(0.865693726103 1.63380808833e-05 0)
(0.86569371053 1.69746129997e-05 0)
(0.8656936244 1.75891841094e-05 0)
(0.865693483949 1.81920253465e-05 0)
(0.865693304288 1.87907418857e-05 0)
(0.865693101951 1.93916966213e-05 0)
(0.865692897796 2.00029032092e-05 0)
(0.865692714801 2.06333762762e-05 0)
(0.865692583158 2.12684362328e-05 0)
(0.865692544697 2.18952423971e-05 0)
(0.865692652884 2.24970297693e-05 0)
(0.865692977842 2.30476269423e-05 0)
(0.865693613538 2.3510426139e-05 0)
(0.865694692015 2.38491275735e-05 0)
(0.865696397054 2.4026638206e-05 0)
(0.865699019116 2.39238315904e-05 0)
(0.865702963679 2.33926655048e-05 0)
(0.865708648514 2.20225339324e-05 0)
(0.865716534689 1.9243522164e-05 0)
(0.865728243777 1.43603094566e-05 0)
(0.865746368101 5.54285375275e-06 0)
(0.865773872959 -8.80623866672e-06 0)
(0.865814630275 -3.06842421516e-05 0)
(0.865874558611 -6.40461081503e-05 0)
(0.865962993062 -0.000115766058276 0)
(0.866094442779 -0.000196604244097 0)
(0.866291453509 -0.000323818477252 0)
(0.866588839058 -0.000525881831132 0)
(0.867040196305 -0.000851740103992 0)
(0.867730583715 -0.00138832925855 0)
(0.868796343634 -0.00228442198151 0)
(0.870450721754 -0.00381461596376 0)
(0.873012596692 -0.00650319113337 0)
(0.876880860363 -0.0113596375858 0)
(0.882378023347 -0.0202532243137 0)
(0.88968729746 -0.0364550763592 0)
(0.896363607038 -0.0654980401145 0)
(0.886536207849 -0.110056773019 0)
(1.01287875129 0.118961023263 0)
(1.08820670794 0.23180693648 0)
(1.13741367049 0.253106764193 0)
(1.15409086564 0.228992753236 0)
(1.14994210582 0.18836835872 0)
(1.13538464987 0.146579844005 0)
(1.11758894119 0.110150965784 0)
(1.10059499304 0.0808162222228 0)
(1.08612456007 0.0582265765172 0)
(1.07459091125 0.0413189851161 0)
(1.0657914514 0.0289160203533 0)
(1.05928797167 0.0199601001204 0)
(1.05459974455 0.0135815602557 0)
(1.05129074442 0.0090974433176 0)
(1.04899982458 0.00598615411087 0)
(1.0474433793 0.00385696658209 0)
(1.04640650365 0.00242159809097 0)
(1.04573058599 0.00147015024327 0)
(1.045301028 0.00085170198631 0)
(1.04503652803 0.000459016335022 0)
(1.04488016257 0.000216756827706 0)
(1.04479254346 7.30177405532e-05 0)
(1.04474867564 -5.50406977064e-06 0)
(1.04473177379 -4.40082489595e-05 0)
(1.04472952077 -5.9385321917e-05 0)
(1.04473500262 -6.17189001092e-05 0)
(1.04474394864 -5.72452371953e-05 0)
(1.04475383093 -4.98032725889e-05 0)
(1.04476326992 -4.16440881353e-05 0)
(1.04477159548 -3.39886289723e-05 0)
(1.04477855717 -2.7423205013e-05 0)
(1.04478414234 -2.21512951029e-05 0)
(1.04478849701 -1.81278980189e-05 0)
(1.04479183223 -1.51391166282e-05 0)
(1.04479440277 -1.28078247724e-05 0)
(1.044796502 -1.10115661449e-05 0)
(1.04479824128 -9.52283290677e-06 0)
(1.04479956602 -8.2334812861e-06 0)
(1.04480054639 -7.21477649421e-06 0)
(1.04480123332 -6.54618292932e-06 0)
(1.0448016484 -6.1669773626e-06 0)
(1.04480187871 -5.95865801115e-06 0)
(1.0448019697 -5.87048591932e-06 0)
(1.04480195978 -5.85324911186e-06 0)
(1.04480187384 -5.86659958786e-06 0)
(1.04480172958 -5.89064889451e-06 0)
(1.04480154465 -5.91567940762e-06 0)
(1.04480134022 -5.93759030893e-06 0)
(1.04480114154 -5.9603401664e-06 0)
(1.04480095489 -5.99561293794e-06 0)
(1.04480079604 -6.02675197982e-06 0)
(1.04480071039 -6.051926882e-06 0)
(1.04480075241 -6.0777718077e-06 0)
(1.04480099707 -6.11936245312e-06 0)
(1.04480156565 -6.21474884369e-06 0)
(1.04480264174 -6.47596374195e-06 0)
(1.04480441237 -7.16526037588e-06 0)
(1.04480716485 -8.56024362258e-06 0)
(1.04481121332 -1.11513050628e-05 0)
(1.04481702652 -1.49793673087e-05 0)
(1.04482562196 -1.99201616907e-05 0)
(1.04483815027 -2.61428953731e-05 0)
(1.0448558931 -3.59341591866e-05 0)
(1.04488115529 -5.2274833232e-05 0)
(1.04491740634 -7.93825395411e-05 0)
(1.04496979577 -0.000123503140666 0)
(1.04504592394 -0.000194406375366 0)
(1.04515713548 -0.000307669442981 0)
(1.04532057179 -0.000488455282752 0)
(1.04556208875 -0.000777786046855 0)
(1.04592035715 -0.00124298087142 0)
(1.04645322262 -0.00199568149901 0)
(1.0472447879 -0.00322643310677 0)
(1.04840798373 -0.00526603327996 0)
(1.05007010813 -0.0086913656507 0)
(1.05228781913 -0.0144962546461 0)
(1.05481714386 -0.0242879117603 0)
(1.0568685476 -0.0403766605958 0)
(1.05573631143 -0.0656026433757 0)
(1.04212289516 -0.099470424631 0)
(1.00447483474 0.0814039974789 0)
(1.06917237275 0.181288538713 0)
(1.13080568539 0.216950418458 0)
(1.17375000155 0.210789155263 0)
(1.19865264878 0.183690076632 0)
(1.2101998761 0.149751683129 0)
(1.21350255254 0.116779143891 0)
(1.21251723427 0.0882206776018 0)
(1.20973097536 0.0650481505606 0)
(1.20651118704 0.0470209084536 0)
(1.20351912238 0.0334068080391 0)
(1.20101143971 0.0233557320261 0)
(1.19903443756 0.0160720133367 0)
(1.19753876421 0.0108795132607 0)
(1.19644129759 0.00723418768323 0)
(1.19565556662 0.00471351821841 0)
(1.1951048685 0.0029976289604 0)
(1.19472645309 0.00184916086085 0)
(1.19447146957 0.00109496055028 0)
(1.19430315662 0.000610611613369 0)
(1.19419451458 0.000307986944188 0)
(1.19412622709 0.000125769031513 0)
(1.19408517438 2.22238281623e-05 0)
(1.19406191251 -3.24511402668e-05 0)
(1.19404960902 -5.72696944089e-05 0)
(1.19404410709 -6.45953184959e-05 0)
(1.19404260603 -6.23733676413e-05 0)
(1.19404328746 -5.55187300069e-05 0)
(1.19404503582 -4.69417534041e-05 0)
(1.19404719289 -3.82558614681e-05 0)
(1.19404938625 -3.02621218668e-05 0)
(1.19405142385 -2.32654967538e-05 0)
(1.19405323657 -1.72895858253e-05 0)
(1.19405481876 -1.22608483877e-05 0)
(1.19405618663 -8.07288596616e-06 0)
(1.19405735932 -4.67162855119e-06 0)
(1.19405830927 -2.06080990532e-06 0)
(1.19405898325 -1.71632396097e-07 0)
(1.1940593408 1.14563622883e-06 0)
(1.19405945747 2.00127796984e-06 0)
(1.19405951441 2.67903982372e-06 0)
(1.19405954825 3.28090758742e-06 0)
(1.19405953252 3.80681759653e-06 0)
(1.19405948383 4.26616611025e-06 0)
(1.19405939814 4.67065307785e-06 0)
(1.19405926639 5.03698721831e-06 0)
(1.19405909141 5.37718331243e-06 0)
(1.19405888009 5.69435257679e-06 0)
(1.19405864273 5.97952133304e-06 0)
(1.19405842145 6.21765400434e-06 0)
(1.19405826225 6.43228040743e-06 0)
(1.19405819471 6.6163394378e-06 0)
(1.19405826769 6.74314727442e-06 0)
(1.1940585392 6.77178711156e-06 0)
(1.19405904476 6.64269966352e-06 0)
(1.19405976293 6.26487480975e-06 0)
(1.19406078022 5.48513977587e-06 0)
(1.19406225278 3.92348917414e-06 0)
(1.19406484991 1.16706279266e-06 0)
(1.19406960189 -3.07631008556e-06 0)
(1.19407704383 -9.58352842243e-06 0)
(1.1940871089 -1.97381854271e-05 0)
(1.19410056059 -3.55545233075e-05 0)
(1.19411938933 -5.99491278062e-05 0)
(1.19414572262 -9.7503553879e-05 0)
(1.19418238055 -0.000155533994694 0)
(1.19423335226 -0.000245686595769 0)
(1.19430426946 -0.000386439796266 0)
(1.1944030136 -0.000607251522454 0)
(1.1945403565 -0.000955458190779 0)
(1.19473033767 -0.001507580214 0)
(1.19498972567 -0.00238790820291 0)
(1.19533332622 -0.00379968969404 0)
(1.19575838378 -0.00607590181636 0)
(1.19620455336 -0.00975547264216 0)
(1.19645208727 -0.0156823673337 0)
(1.1959141357 -0.0250677598725 0)
(1.19343609462 -0.039367791794 0)
(1.18668266174 -0.0598262733559 0)
(1.1701348189 -0.0851343628375 0)
(0.998962325655 0.0544316253664 0)
(1.05310956768 0.133401607601 0)
(1.11628268035 0.170777558091 0)
(1.17301271674 0.175143871855 0)
(1.2179124589 0.159583606162 0)
(1.2504985745 0.134951019964 0)
(1.27288490592 0.10841165673 0)
(1.28776721455 0.0838849717515 0)
(1.2974526719 0.0630565723161 0)
(1.30366074104 0.0462999213949 0)
(1.3075923329 0.0333205148927 0)
(1.31005368963 0.0235495241571 0)
(1.31157361258 0.0163599079497 0)
(1.31249491437 0.011171315349 0)
(1.31303860649 0.00749150688444 0)
(1.31334669724 0.00492448599143 0)
(1.31351011028 0.00316295513312 0)
(1.31358673933 0.00197475151532 0)
(1.31361311482 0.0011881962597 0)
(1.31361196454 0.000678628412162 0)
(1.31359712629 0.000357007435492 0)
(1.31357680468 0.000160753095235 0)
(1.31355580999 4.64683978646e-05 0)
(1.31353651431 -1.58699355592e-05 0)
(1.31351985625 -4.60582463534e-05 0)
(1.31350616762 -5.70680735231e-05 0)
(1.31349526352 -5.73226224704e-05 0)
(1.31348680689 -5.20839913439e-05 0)
(1.31348040957 -4.45215117707e-05 0)
(1.31347568638 -3.64596033134e-05 0)
(1.31347228623 -2.88713274255e-05 0)
(1.3134699061 -2.22101644042e-05 0)
(1.31346828641 -1.66276301747e-05 0)
(1.31346719889 -1.21311890755e-05 0)
(1.31346647809 -8.65505961772e-06 0)
(1.31346602658 -6.09765522703e-06 0)
(1.31346574316 -4.32178105712e-06 0)
(1.3134655384 -3.12002401504e-06 0)
(1.3134654095 -2.26292443729e-06 0)
(1.31346544214 -1.54628126107e-06 0)
(1.3134655987 -9.70577538887e-07 0)
(1.31346570122 -5.57923316215e-07 0)
(1.31346569899 -1.99501245492e-07 0)
(1.3134656239 1.34997249727e-07 0)
(1.3134654971 4.43695358928e-07 0)
(1.31346533112 7.35081216073e-07 0)
(1.31346512953 1.02093150562e-06 0)
(1.31346489506 1.31162888126e-06 0)
(1.31346463808 1.61770623656e-06 0)
(1.31346439223 1.94126128906e-06 0)
(1.31346418019 2.23215284421e-06 0)
(1.31346400956 2.45192762188e-06 0)
(1.31346391101 2.55614527318e-06 0)
(1.31346393786 2.48094957812e-06 0)
(1.31346417792 2.14048040908e-06 0)
(1.31346475024 1.44690904214e-06 0)
(1.31346562574 3.48018856425e-07 0)
(1.3134668982 -1.33844167495e-06 0)
(1.31346898981 -3.83978019554e-06 0)
(1.31347211454 -7.88409112707e-06 0)
(1.31347647798 -1.47564193183e-05 0)
(1.31348231208 -2.60304724415e-05 0)
(1.31348989284 -4.32988206046e-05 0)
(1.31349970713 -6.97341682504e-05 0)
(1.31351207349 -0.000110364958369 0)
(1.31352707421 -0.000172936665638 0)
(1.31354432904 -0.00026953123347 0)
(1.31356252886 -0.000419100643178 0)
(1.31357848347 -0.000651456919251 0)
(1.31358528503 -0.00101381947582 0)
(1.3135688806 -0.00158119280227 0)
(1.31350184211 -0.00247261499617 0)
(1.31332994892 -0.00387532644506 0)
(1.31294563811 -0.00608169272569 0)
(1.31213893573 -0.00953621351086 0)
(1.31050453129 -0.0148804576916 0)
(1.30728914317 -0.0229427669663 0)
(1.3012832559 -0.0345636908757 0)
(1.29061924185 -0.0501809770175 0)
(1.27182520054 -0.0685686608541 0)
(0.995736074184 0.0346338599321 0)
(1.0417951438 0.0905689211298 0)
(1.10222838741 0.121549564854 0)
(1.16491411716 0.129605833944 0)
(1.22202566444 0.122009268334 0)
(1.26951892165 0.106019938349 0)
(1.30680223923 0.0870975560588 0)
(1.33499535506 0.0686366812512 0)
(1.35574477633 0.0523698392975 0)
(1.37069616967 0.0389256182626 0)
(1.38128275757 0.0282980736854 0)
(1.38866267931 0.0201712774133 0)
(1.39373033529 0.0141175105833 0)
(1.39715660883 0.00970533612238 0)
(1.39943434971 0.00655059529669 0)
(1.40091967079 0.00433445457785 0)
(1.40186621624 0.00280414470101 0)
(1.40245223594 0.00176574276014 0)
(1.40280133278 0.00107419466019 0)
(1.40299802897 0.00062323448001 0)
(1.40309924973 0.0003364086472 0)
(1.40314270276 0.000159622611676 0)
(1.40315296318 5.51637989273e-05 0)
(1.4031454743 -2.99831627519e-06 0)
(1.40312971513 -3.2122497729e-05 0)
(1.4031113136 -4.3889791397e-05 0)
(1.40309327676 -4.5759816309e-05 0)
(1.40307712926 -4.24176901826e-05 0)
(1.40306347264 -3.67268371081e-05 0)
(1.4030523806 -3.03640508906e-05 0)
(1.40304365137 -2.42440093693e-05 0)
(1.4030369596 -1.88138178642e-05 0)
(1.40303194401 -1.42419706887e-05 0)
(1.40302825465 -1.05305685686e-05 0)
(1.40302559357 -7.57894950579e-06 0)
(1.40302372849 -5.26229061849e-06 0)
(1.4030224828 -3.4577807805e-06 0)
(1.40302170587 -2.021759841e-06 0)
(1.40302123227 -8.494766911e-07 0)
(1.40302086716 8.2059459607e-08 0)
(1.40302054254 7.90965075331e-07 0)
(1.40302034011 1.28038902068e-06 0)
(1.4030202475 1.65193551686e-06 0)
(1.40302017282 1.97080261042e-06 0)
(1.40302008133 2.27455452158e-06 0)
(1.40301996608 2.58137046796e-06 0)
(1.40301982562 2.90056974949e-06 0)
(1.40301966217 3.23671882486e-06 0)
(1.40301947708 3.590477719e-06 0)
(1.40301926328 3.95204856361e-06 0)
(1.40301903256 4.27989717362e-06 0)
(1.40301881868 4.54218835432e-06 0)
(1.40301865 4.70056292485e-06 0)
(1.40301855188 4.69744148944e-06 0)
(1.4030185417 4.4445417704e-06 0)
(1.40301862506 3.79944811633e-06 0)
(1.4030188084 2.55839693475e-06 0)
(1.40301909786 5.99744480033e-07 0)
(1.40301971765 -2.47998499512e-06 0)
(1.40302083983 -7.46547564238e-06 0)
(1.40302232779 -1.51492780387e-05 0)
(1.40302385112 -2.68520457657e-05 0)
(1.40302493378 -4.44248182065e-05 0)
(1.40302483242 -7.08504973179e-05 0)
(1.4030220568 -0.000110717093082 0)
(1.40301386625 -0.000171051930003 0)
(1.4029954556 -0.000262728745992 0)
(1.40295864172 -0.000402613147811 0)
(1.40288948224 -0.000616758158476 0)
(1.40276425313 -0.000945773884317 0)
(1.40254292181 -0.00145299572683 0)
(1.40215914186 -0.00223684056623 0)
(1.40150134876 -0.00344635717961 0)
(1.40038117132 -0.00530529974616 0)
(1.39848529285 -0.00813652799494 0)
(1.3953005092 -0.0123749360776 0)
(1.39001364382 -0.0185316487086 0)
(1.38147639112 -0.0270446788385 0)
(1.36819243858 -0.037996238587 0)
(1.34776926293 -0.0504947177971 0)
(0.994011531384 0.0192358061801 0)
(1.03484763579 0.052333840037 0)
(1.09199262669 0.0723631269878 0)
(1.15662419953 0.0791292314992 0)
(1.22032116329 0.0761045458614 0)
(1.27701945296 0.0673339710816 0)
(1.32424418969 0.0561509032685 0)
(1.36181573712 0.0447990109425 0)
(1.39068530948 0.0345303777333 0)
(1.41226075177 0.0258814327659 0)
(1.42801822313 0.018946524401 0)
(1.43929884166 0.013584982518 0)
(1.44722807414 0.00955653465541 0)
(1.45270412909 0.00660011568673 0)
(1.45641895347 0.00447419040423 0)
(1.45889143881 0.00297351350943 0)
(1.46050230346 0.0019327686479 0)
(1.46152570039 0.00122369372601 0)
(1.46215571635 0.00074955049973 0)
(1.46252754137 0.000439017754264 0)
(1.46273381878 0.000240521230493 0)
(1.46283696186 0.000117412128759 0)
(1.46287826472 4.40497411986e-05 0)
(1.46288450406 2.69135239665e-06 0)
(1.4628723799 -1.84437246884e-05 0)
(1.46285202887 -2.74374851471e-05 0)
(1.46282947804 -2.94372791603e-05 0)
(1.46280794034 -2.76872212926e-05 0)
(1.46278894358 -2.41851464061e-05 0)
(1.46277303211 -2.01122534884e-05 0)
(1.4627601972 -1.61173135846e-05 0)
(1.46275014455 -1.2523089152e-05 0)
(1.46274246348 -9.45619331698e-06 0)
(1.46273672178 -6.92747328359e-06 0)
(1.46273252071 -4.88318036502e-06 0)
(1.46272951789 -3.25397175866e-06 0)
(1.46272742497 -1.97677488761e-06 0)
(1.46272598507 -1.01051812099e-06 0)
(1.46272498617 -3.1028972291e-07 0)
(1.46272436361 2.11755912774e-07 0)
(1.46272400451 6.92955305012e-07 0)
(1.46272375925 1.16872791173e-06 0)
(1.46272359524 1.59325831251e-06 0)
(1.46272347321 1.97316285239e-06 0)
(1.46272336372 2.32951680483e-06 0)
(1.46272324773 2.67569923578e-06 0)
(1.46272311185 3.01712967228e-06 0)
(1.46272294762 3.35183617777e-06 0)
(1.46272275074 3.67028008169e-06 0)
(1.46272251878 3.95990295042e-06 0)
(1.46272225497 4.21271384782e-06 0)
(1.46272196715 4.39712108588e-06 0)
(1.4627216627 4.46209150307e-06 0)
(1.46272135181 4.33763786013e-06 0)
(1.46272105045 3.93293725637e-06 0)
(1.46272078028 3.13784374775e-06 0)
(1.46272051598 1.83122329049e-06 0)
(1.46272016566 -1.01565216856e-07 0)
(1.46271958455 -2.91176253693e-06 0)
(1.46271863857 -7.45762715932e-06 0)
(1.46271706391 -1.45230174818e-05 0)
(1.46271417981 -2.52042504075e-05 0)
(1.46270886578 -4.10450364045e-05 0)
(1.46269931349 -6.44252973802e-05 0)
(1.46268246026 -9.89440396419e-05 0)
(1.4626531629 -0.000149988734825 0)
(1.46260291373 -0.000225744409271 0)
(1.46251795659 -0.000338669384456 0)
(1.46237581671 -0.000507362186668 0)
(1.46213963185 -0.000760241859187 0)
(1.46174943657 -0.00114108204948 0)
(1.46111063095 -0.00171751073816 0)
(1.46007205729 -0.0025852499761 0)
(1.45839266875 -0.00388387788263 0)
(1.45569845703 -0.00580582357682 0)
(1.45142389199 -0.00859427579452 0)
(1.44474838409 -0.0125095024 0)
(1.43460254183 -0.0177321257666 0)
(1.4197264117 -0.0242106627882 0)
(1.39827336045 -0.0313994777133 0)
(0.993269667363 0.00617015013186 0)
(1.03158099981 0.0171020455179 0)
(1.08672181774 0.0239906480502 0)
(1.15174554403 0.0265606652852 0)
(1.2182353624 0.0258180584493 0)
(1.27925774107 0.0230488858938 0)
(1.33140135945 0.0193656314 0)
(1.37377598737 0.0155468580884 0)
(1.40691053435 0.0120449305159 0)
(1.43203313487 0.00906640017044 0)
(1.45060214938 0.006660595275 0)
(1.46402985764 0.00479009204979 0)
(1.4735501595 0.00337842895602 0)
(1.48017563218 0.00233873886641 0)
(1.48470228592 0.00158891480333 0)
(1.48773620288 0.00105828989322 0)
(1.48972734142 0.000689463811787 0)
(1.49100277253 0.000437639492611 0)
(1.49179585383 0.000268886887003 0)
(1.49227022585 0.000158112328187 0)
(1.49253871935 8.71259761561e-05 0)
(1.4926777975 4.2976317982e-05 0)
(1.49273833266 1.65864669098e-05 0)
(1.49275350818 1.66600198253e-06 0)
(1.49274427272 -6.06664287595e-06 0)
(1.49272348596 -9.41173414312e-06 0)
(1.49269884307 -1.02177219957e-05 0)
(1.4926745721 -9.6542282751e-06 0)
(1.49265277053 -8.44011258164e-06 0)
(1.49263427974 -6.99331637465e-06 0)
(1.49261922248 -5.55400500167e-06 0)
(1.49260733665 -4.24231782486e-06 0)
(1.49259819265 -3.10569322057e-06 0)
(1.49259131492 -2.15029147836e-06 0)
(1.4925862494 -1.35994610143e-06 0)
(1.49258259585 -7.12862970031e-07 0)
(1.49258001845 -1.87607879631e-07 0)
(1.49257824726 2.37704440754e-07 0)
(1.49257707649 6.09148733678e-07 0)
(1.49257632842 9.78504124052e-07 0)
(1.49257584923 1.28389018636e-06 0)
(1.492575547 1.5686041785e-06 0)
(1.4925753642 1.85012959991e-06 0)
(1.49257524824 2.1386956101e-06 0)
(1.4925751599 2.44147602099e-06 0)
(1.49257507283 2.76122647245e-06 0)
(1.49257496862 3.09727182003e-06 0)
(1.49257483407 3.4455149645e-06 0)
(1.49257465929 3.7973906551e-06 0)
(1.49257443583 4.13874784943e-06 0)
(1.49257415795 4.44960312399e-06 0)
(1.49257382182 4.69769172457e-06 0)
(1.49257342132 4.83803364038e-06 0)
(1.49257294518 4.80946823241e-06 0)
(1.49257237238 4.52785908699e-06 0)
(1.4925716755 3.87596248062e-06 0)
(1.4925708414 2.7020723554e-06 0)
(1.49256973651 9.13548015046e-07 0)
(1.49256793852 -1.71805618489e-06 0)
(1.49256514708 -5.82179886719e-06 0)
(1.49256097314 -1.19275967754e-05 0)
(1.49255439138 -2.08062377941e-05 0)
(1.49254378827 -3.35447896811e-05 0)
(1.4925266199 -5.16950018885e-05 0)
(1.49249877332 -7.74534501249e-05 0)
(1.49245354146 -0.000113838083705 0)
(1.49238005404 -0.000165232950135 0)
(1.49226125278 -0.000238108082842 0)
(1.49206975317 -0.000340944001963 0)
(1.49176089935 -0.000486303888153 0)
(1.49126241885 -0.000694468634688 0)
(1.49046559988 -0.000999045139105 0)
(1.48920094753 -0.00143235718279 0)
(1.48720248467 -0.00204197855091 0)
(1.48407165902 -0.00288928893431 0)
(1.47922845337 -0.00404178143222 0)
(1.47186570758 -0.00555375256787 0)
(1.46096941057 -0.00742675690456 0)
(1.44539159205 -0.00956685080578 0)
(1.42352159371 -0.0117256583091 0)
(0.993270465165 -0.00616840224263 0)
(1.03158098238 -0.0171003767327 0)
(1.08672175138 -0.0239897626205 0)
(1.15174558162 -0.0265602479005 0)
(1.21823544015 -0.0258179940323 0)
(1.27925784294 -0.0230491109109 0)
(1.33140148535 -0.0193660477418 0)