/*--------------------------------*- C++ -*----------------------------------*\
| =========                 |                                                 |
| \\      /  F ield         | OpenFOAM: The Open Source CFD Toolbox           |
|  \\    /   O peration     | Version:  2106                                  |
|   \\  /    A nd           | Website:  www.openfoam.com                      |
|    \\/     M anipulation  |                                                 |
\*---------------------------------------------------------------------------*/
FoamFile
{
    version     2.0;
    format      ascii;
    arch        "LSB;label=32;scalar=64";
    class       surfaceScalarField;
    location    "0.41";
    object      phi;
}
// * * * * * * * * * * * * * * * * * * * * * * * * * * * * * * * * * * * * * //

dimensions      [0 3 -1 0 0 0 0];

oriented        oriented;

internalField   nonuniform List<scalar> 
22100
(
3.3846120085e-05
1.61538799077e-05
2.24572091642e-05
1.13889106013e-05
1.62585519509e-05
6.19865697829e-06
1.27977747065e-05
3.46077705371e-06
1.08046406327e-05
1.99313393321e-06
9.60458745857e-06
1.20005308345e-06
8.85131957655e-06
7.53267829768e-07
8.36435062586e-06
4.86968903667e-07
8.04433255689e-06
3.20017995799e-07
7.83283749234e-06
2.11494936261e-07
7.69339392948e-06
1.39443346297e-07
7.60223654431e-06
9.11571140265e-08
7.54347317441e-06
5.87630341015e-08
7.50633564187e-06
3.71371668683e-08
7.48349553271e-06
2.28397394314e-08
7.46997415717e-06
1.3521025624e-08
7.46240902474e-06
7.56480490384e-09
7.45854051435e-06
3.86819947251e-09
7.45682106323e-06
1.71915646469e-09
7.45641397063e-06
4.06803076601e-10
7.45676334991e-06
-3.49645454462e-10
7.45744902937e-06
-6.85995324284e-10
7.45820688497e-06
-7.58167812549e-10
7.45893171432e-06
-7.25164225424e-10
7.45957561082e-06
-6.44214952728e-10
7.46011919561e-06
-5.43913433202e-10
7.46056103172e-06
-4.42186674953e-10
7.46090957038e-06
-3.48913574484e-10
7.46117772939e-06
-2.68531812941e-10
7.46137961994e-06
-2.02212603412e-10
7.46152865391e-06
-1.49264039808e-10
7.46163633037e-06
-1.07913906461e-10
7.46171252926e-06
-7.63087506239e-11
7.4617653456e-06
-5.28281413122e-11
7.46179858197e-06
-3.3093840162e-11
7.46181720149e-06
-1.83994359659e-11
7.46182613307e-06
-8.56058606014e-12
7.46182865804e-06
-2.27127822382e-12
7.46182681914e-06
1.99867840571e-12
7.46182174303e-06
5.06248452826e-12
7.46181446627e-06
7.16378281407e-12
7.46180560343e-06
8.67091857836e-12
7.46179553055e-06
9.8750145338e-12
7.46178448043e-06
1.09023552666e-11
7.46177237559e-06
1.19473008683e-11
7.46175908495e-06
1.31937936198e-11
7.46174436731e-06
1.46580554086e-11
7.46172796088e-06
1.64141783235e-11
7.46170931238e-06
1.85245971511e-11
7.46168806348e-06
2.1215067908e-11
7.46166356757e-06
2.45050293449e-11
7.46163510264e-06
2.84560659616e-11
7.46160193407e-06
3.3194645602e-11
7.4615632141e-06
3.88002219532e-11
7.46151808516e-06
4.53176129288e-11
7.46146569349e-06
5.27042586234e-11
7.46140536032e-06
6.07121813313e-11
7.46133700917e-06
6.87188814653e-11
7.46126128882e-06
7.59945218465e-11
7.46118074697e-06
8.08196649599e-11
7.46110166356e-06
7.91676827979e-11
7.46103622223e-06
6.56257400102e-11
7.46099161406e-06
4.45550741662e-11
7.46098796804e-06
3.82154172368e-12
7.46106101159e-06
-7.3087195288e-11
7.46126877015e-06
-2.07848108482e-10
7.46170633481e-06
-4.37241108147e-10
7.46252340925e-06
-8.168985574e-10
7.46395533492e-06
-1.43165755067e-09
7.46635766002e-06
-2.40169260456e-09
7.47017931804e-06
-3.82092264528e-09
7.47663236872e-06
-6.45233196365e-09
7.48740651768e-06
-1.07736771412e-08
7.50558388246e-06
-1.81770873469e-08
7.53877009059e-06
-3.31860032349e-08
7.60798145145e-06
-6.92111752485e-08
7.7746291517e-06
-1.66647469418e-07
8.22949512591e-06
-4.5486577737e-07
9.6969746426e-06
-1.46747956053e-06
-5.45083183126e-06
1.51478062087e-05
5.02175945137e-05
1.59362851821e-05
4.42441107249e-05
1.73623939812e-05
3.77795001751e-05
1.26632672771e-05
3.26461423483e-05
8.59413472261e-06
2.89380899665e-05
5.70118623075e-06
2.63596193476e-05
3.77852362713e-06
2.45875147289e-05
2.52537232669e-06
2.33734724317e-05
1.70101097941e-06
2.2543523077e-05
1.14996699995e-06
2.19782140266e-05
7.76803533274e-07
2.15955110446e-05
5.22145745422e-07
2.13387339791e-05
3.47933530315e-07
2.11684919205e-05
2.29004409449e-07
2.10573337788e-05
1.48294645725e-07
2.09861453659e-05
9.40275423792e-08
2.09416725446e-05
5.79933077564e-08
2.09147903391e-05
3.44465085421e-08
2.08992909e-05
1.93671588756e-08
2.0891066807e-05
9.94271815765e-09
2.08872662071e-05
4.20683900723e-09
2.0886196861e-05
7.19062152644e-10
2.08864422077e-05
-9.32033759004e-10
2.08873132276e-05
-1.62997997537e-09
2.0888452327e-05
-1.86504211971e-09
2.08896252746e-05
-1.81789947643e-09
2.0890707928e-05
-1.62718398654e-09
2.0891645239e-05
-1.3799544632e-09
2.08924225367e-05
-1.12649642314e-09
2.08930476267e-05
-8.93681856266e-10
2.08935397378e-05
-6.94175729987e-10
2.08939236984e-05
-5.32959288841e-10
2.08942253369e-05
-4.09294493187e-10
2.08944364225e-05
-2.87247896308e-10
2.0894583788e-05
-2.00081618842e-10
2.08946841166e-05
-1.33767615263e-10
2.08947493564e-05
-8.42621067234e-11
2.08947898221e-05
-4.96338492999e-11
2.08948135723e-05
-2.65809003029e-11
2.08948254574e-05
-1.03753360148e-11
2.08948283781e-05
1.67377411913e-12
2.08948248349e-05
1.03396861435e-11
2.0894816524e-05
1.67172854495e-11
2.08948045225e-05
2.15738865996e-11
2.08947897141e-05
2.55642728594e-11
2.08947723533e-05
2.9186290838e-11
2.08947525789e-05
3.28513641174e-11
2.08947304136e-05
3.6655166586e-11
2.08947057279e-05
4.0950175984e-11
2.08946782412e-05
4.58158403706e-11
2.08946477718e-05
5.15033124993e-11
2.08946140804e-05
5.80171083664e-11
2.08945770698e-05
6.53764123971e-11
2.08945367905e-05
7.35073307642e-11
2.0894493587e-05
8.21997414512e-11
2.08944483374e-05
9.09125105709e-11
2.08944028371e-05
9.86505746123e-11
2.08943603656e-05
1.03611225196e-10
2.08943269646e-05
1.02575218512e-10
2.08943120817e-05
9.12497323961e-11
2.08943310661e-05
6.23314550403e-11
2.08944110438e-05
-4.40009626878e-13
2.08946007269e-05
-1.23804445792e-10
2.08949684473e-05
-3.23325853926e-10
2.08956335081e-05
-6.60715734606e-10
2.08967023635e-05
-1.1416132575e-09
2.08983534235e-05
-1.85868471194e-09
2.09009448193e-05
-3.02819749743e-09
2.0905024379e-05
-4.89560074067e-09
2.09114610816e-05
-7.86758888884e-09
2.09216786065e-05
-1.26185556735e-08
2.09381669156e-05
-2.03085644658e-08
2.09650700041e-05
-3.33544896052e-08
2.10093269053e-05
-5.50295464784e-08
2.10841074418e-05
-9.29568319732e-08
2.12153322904e-05
-1.64410349271e-07
2.14558978905e-05
-3.09776620715e-07
2.191363576e-05
-6.24385591697e-07
2.28004076295e-05
-1.34163801717e-06
2.44439351756e-05
-3.11100688048e-06
-7.03668106856e-06
2.60297832058e-05
5.3517104957e-05
1.24191800169e-05
5.29349673307e-05
1.79445311533e-05
4.96538386428e-05
1.59443956397e-05
4.58401795558e-05
1.24077935673e-05
4.24400902088e-05
9.10127541785e-06
3.97291699563e-05
6.48944376355e-06
3.76873032001e-05
4.56723897134e-06
3.61976600643e-05
3.19065396067e-06
3.51326090447e-05
2.21501776762e-06
3.4382363533e-05
1.52704870576e-06
3.38606220024e-05
1.04388682992e-06
3.35023411574e-05
7.06213854049e-07
3.32595956202e-05
4.71749377578e-07
3.30975846881e-05
3.10305003103e-07
3.29913280248e-05
2.00283661558e-07
3.29230855994e-05
1.26235221725e-07
3.28803971478e-05
7.71344975774e-08
3.28546115404e-05
4.5152328529e-08
3.2839784e-05
2.47698536269e-08
3.28318570414e-05
1.21333529552e-08
3.28279871045e-05
4.58853624835e-09
3.28269880053e-05
6.65835055732e-11
3.28271683002e-05
-1.81079027064e-09
3.28280162445e-05
-2.71353016942e-09
3.28291315689e-05
-2.93378428226e-09
3.28302783962e-05
-2.77458799239e-09
3.28313339924e-05
-2.43611524382e-09
3.28322440788e-05
-2.0370937818e-09
3.28329938502e-05
-1.64386011925e-09
3.28335893337e-05
-1.29000726858e-09
3.28340454296e-05
-9.89258437762e-10
3.28343802953e-05
-7.44167780344e-10
3.28346465065e-05
-5.53317232657e-10
3.28348629609e-05
-4.16213255152e-10
3.28350099538e-05
-2.80519987354e-10
3.28351088653e-05
-1.83152422453e-10
3.28351744592e-05
-1.15249971404e-10
3.28352159509e-05
-6.83497868548e-11
3.28352403729e-05
-3.5110469578e-11
3.28352517133e-05
-9.96014754469e-12
3.28352535219e-05
8.25278214699e-12
3.28352483487e-05
2.16724338303e-11
3.28352379739e-05
3.17562592201e-11
3.28352237591e-05
3.97155209279e-11
3.28352064245e-05
4.64641905492e-11
3.28351862236e-05
5.27888944389e-11
3.28351637323e-05
5.91243219432e-11
3.28351389934e-05
6.5610449106e-11
3.28351121902e-05
7.25448685153e-11
3.28350833526e-05
8.03297907053e-11
3.28350527432e-05
8.85980746632e-11
3.28350210168e-05
9.71072088088e-11
3.28349892801e-05
1.05363082419e-10
3.28349593601e-05
1.12342635929e-10
3.28349342483e-05
1.16270022691e-10
3.28349185665e-05
1.14583537038e-10
3.28349194045e-05
1.03024229577e-10
3.283494839e-05
7.40600980617e-11
3.28350230146e-05
1.73869866446e-11
3.28351727775e-05
-8.72361485951e-11
3.28354494244e-05
-2.76856642154e-10
3.28359424423e-05
-6.16474919861e-10
3.28366630838e-05
-1.04423886031e-09
3.28377095744e-05
-1.70748956659e-09
3.28393416249e-05
-2.77347454035e-09
3.28419336464e-05
-4.45026981048e-09
3.28459896896e-05
-7.08382455467e-09
3.28523241614e-05
-1.12297991902e-08
3.28622501398e-05
-1.77930052841e-08
3.2877931642e-05
-2.8299227797e-08
3.29030279999e-05
-4.540411837e-08
3.29428881041e-05
-7.32139177733e-08
3.30073382743e-05
-1.19479152913e-07
3.31133537657e-05
-1.98971801997e-07
3.32899352329e-05
-3.40991316672e-07
3.35852648223e-05
-6.05105809758e-07
3.40703853187e-05
-1.109506065e-06
3.48113766059e-05
-2.08262951282e-06
3.56719806675e-05
-3.97161061014e-06
-7.10456810786e-06
3.57398711431e-05
5.35105660804e-05
8.90861373118e-06
5.55742212017e-05
1.58808755522e-05
5.52424809765e-05
1.62761355231e-05
5.35977840076e-05
1.40524902625e-05
5.15418454106e-05
1.11572138109e-05
4.95802773678e-05
8.45101165402e-06
4.79243480793e-05
6.22316810126e-06
4.66181359115e-05
4.49686593961e-06
4.56304627435e-05
3.20269066465e-06
4.49051133365e-05
2.25239774454e-06
4.43840856054e-05
1.56491411073e-06
4.40166888471e-05
1.07361009297e-06
4.37619617087e-05
7.26475959101e-07
4.35882624647e-05
4.84003697001e-07
4.34718625051e-05
3.16683099911e-07
4.33953518739e-05
2.02745341535e-07
4.3346181083e-05
1.26304791613e-07
4.33154430038e-05
7.58899301238e-08
4.32969062084e-05
4.33061678005e-08
4.32862797126e-05
2.27593417121e-08
4.32806764321e-05
1.01912607106e-08
4.32778683455e-05
2.87411241953e-09
4.32770401271e-05
-9.83135584033e-10
4.32772576259e-05
-2.93155387783e-09
4.32779448105e-05
-3.62143786493e-09
4.32788075528e-05
-3.63773697201e-09
4.32796800879e-05
-3.30898826998e-09
4.32804773408e-05
-2.83456383528e-09
4.32811629793e-05
-2.32960401497e-09
4.32817287273e-05
-1.85579661236e-09
4.32821814019e-05
-1.44192683986e-09
4.32825338354e-05
-1.09650697567e-09
4.32827955184e-05
-8.15132350506e-10
4.32829708131e-05
-5.91421272298e-10
4.32831038222e-05
-4.13600579981e-10
4.3283189072e-05
-2.68403368325e-10
4.32832429152e-05
-1.69179249273e-10
4.32832824085e-05
-1.08111783642e-10
4.32833065597e-05
-5.95828113477e-11
4.32833183214e-05
-2.2151740818e-11
4.32833211724e-05
4.99818340278e-12
4.32833170589e-05
2.54253529541e-11
4.32833076551e-05
4.08035166431e-11
4.32832941997e-05
5.28341685111e-11
4.32832774854e-05
6.31475249276e-11
4.32832577067e-05
7.24727058262e-11
4.32832353388e-05
8.14479597763e-11
4.3283210619e-05
9.03215652187e-11
4.32831839734e-05
9.92757690972e-11
4.32831559417e-05
1.08459085474e-10
4.32831272051e-05
1.17535693456e-10
4.32830987312e-05
1.25872049082e-10
4.32830720685e-05
1.32463037486e-10
4.32830493413e-05
1.35620028157e-10
4.32830334857e-05
1.32707805437e-10
4.32830290558e-05
1.19643005979e-10
4.32830440575e-05
8.86622914595e-11
4.32830903548e-05
2.7952057997e-11
4.32831877523e-05
-7.94675494685e-11
4.32833514982e-05
-2.50578218469e-10
4.32835989121e-05
-5.24017829246e-10
4.32840464576e-05
-1.06388232449e-09
4.32848248645e-05
-1.82196035574e-09
4.32860856653e-05
-2.96829453339e-09
4.32880369889e-05
-4.72504194767e-09
4.32910298511e-05
-7.44297777614e-09
4.32956240845e-05
-1.16773708144e-08
4.33026981315e-05
-1.83031989901e-08
4.33136341734e-05
-2.87283837308e-08
4.33305898241e-05
-4.52540083741e-08
4.33568732174e-05
-7.16865530324e-08
4.3398052426e-05
-1.14392345716e-07
4.34629744083e-05
-1.844007032e-07
4.35653550478e-05
-3.01352225193e-07
4.37251338492e-05
-5.00769959715e-07
4.39668810801e-05
-8.46852960172e-07
4.43072209565e-05
-1.44984607487e-06
4.4707395332e-05
-2.48280401942e-06
4.49264392487e-05
-4.19065538377e-06
-6.57507853054e-06
4.43969518175e-05
5.27351376235e-05
6.17347585667e-06
5.57309333535e-05
1.28850792328e-05
5.73114726415e-05
1.46955958267e-05
5.76109897091e-05
1.37529728926e-05
5.71335202066e-05
1.16346830727e-05
5.63194654586e-05
9.26506623105e-06
5.54489851102e-05
7.09364828506e-06
5.46629743576e-05
5.28287649237e-06
5.40136785548e-05
3.85198620857e-06
5.35061468816e-05
2.75992904114e-06
5.31242505498e-05
1.9468099826e-06
5.28449805357e-05
1.35287957663e-06
5.26454337943e-05
9.26022129141e-07
5.25057090715e-05
6.23727856085e-07
5.24097138618e-05
4.12677776799e-07
5.23450074671e-05
2.67451261812e-07
5.23022693068e-05
1.69042511117e-07
5.22746818375e-05
1.0347698037e-07
5.22573570288e-05
6.06305973331e-08
5.22468480413e-05
3.32678869389e-08
5.22407480035e-05
1.62908374004e-08
5.22374387391e-05
6.1828678025e-09
5.22359396149e-05
5.15445192626e-10
5.22354311764e-05
-2.42366351403e-09
5.22354956257e-05
-3.68641095967e-09
5.22358405864e-05
-3.9831843191e-09
5.22362943558e-05
-3.76319700531e-09
5.22367603194e-05
-3.30089900768e-09
5.22371874244e-05
-2.7569690097e-09
5.22375528672e-05
-2.22153051251e-09
5.22378500159e-05
-1.73928573352e-09
5.22380815828e-05
-1.32835615322e-09
5.22382577961e-05
-9.91580687948e-10
5.22383904838e-05
-7.24363733071e-10
5.22384907398e-05
-5.14039729204e-10
5.22385752206e-05
-3.53108484868e-10
5.22386405571e-05
-2.34842033873e-10
5.22386826244e-05
-1.50549578665e-10
5.22387150134e-05
-9.23936560677e-11
5.22387301607e-05
-3.753573752e-11
5.22387351495e-05
-2.37435544913e-13
5.22387326424e-05
2.77126355281e-11
5.2238724413e-05
4.87757992335e-11
5.22387121162e-05
6.50481405014e-11
5.22386964376e-05
7.86953339303e-11
5.22386779364e-05
9.0878361051e-11
5.22386570804e-05
1.02158067663e-10
5.2238634566e-05
1.12750229998e-10
5.22386115676e-05
1.22255357771e-10
5.22385859988e-05
1.34031855554e-10
5.22385596044e-05
1.43888730717e-10
5.22385335426e-05
1.519143608e-10
5.22385093998e-05
1.56626564518e-10
5.2238489861e-05
1.55300806181e-10
5.22384808732e-05
1.42110024448e-10
5.22384908517e-05
1.10313529239e-10
5.22385234658e-05
5.64944182909e-11
5.22386023982e-05
-5.03436154248e-11
5.22387242275e-05
-2.0103997434e-10
5.2238922271e-05
-4.48571755781e-10
5.22392621542e-05
-8.63813368144e-10
5.22397836191e-05
-1.58582112092e-09
5.2240561323e-05
-2.59940624272e-09
5.22417280863e-05
-4.13487592696e-09
5.22434872141e-05
-6.48424056863e-09
5.22461403715e-05
-1.00961448716e-08
5.22501398203e-05
-1.56765012029e-08
5.2256176875e-05
-2.43396064375e-08
5.2265310516e-05
-3.78612795844e-08
5.22791581402e-05
-5.91009352823e-08
5.23001773287e-05
-9.27050580004e-08
5.23320831769e-05
-1.46297505219e-07
5.23802177172e-05
-2.32534672665e-07
5.24515042978e-05
-3.72638385017e-07
5.25528017855e-05
-6.02067081363e-07
5.26846483768e-05
-9.78699257234e-07
5.28248114731e-05
-1.59000898982e-06
5.28918048525e-05
-2.54979764626e-06
5.2673191202e-05
-3.97204300578e-06
-5.76622052826e-06
5.18643344091e-05
5.19834861005e-05
4.1899894611e-06
5.50586628536e-05
9.80990177833e-06
5.76386115094e-05
1.21156466454e-05
5.9325900997e-05
1.20656830172e-05
6.02280126614e-05
1.07325711119e-05
6.05929235447e-05
8.90015512692e-06
6.06482801945e-05
7.03829145052e-06
6.05531854144e-05
5.37797104219e-06
6.04029504609e-05
4.00222090209e-06
6.02479094632e-05
2.91496968016e-06
6.01107833483e-05
2.08393564996e-06
5.999902316e-05
1.46463923749e-06
5.99125072728e-05
1.0125374412e-06
5.98479146616e-05
6.88319882446e-07
5.98010103923e-05
4.59581469941e-07
5.97677250757e-05
3.00736028931e-07
5.97445831021e-05
1.92183978395e-07
5.97288039611e-05
1.19255614365e-07
5.97182552696e-05
7.11788462051e-08
5.97113485519e-05
4.01741804928e-08
5.97069286842e-05
2.07102641463e-08
5.97041942869e-05
8.91682071373e-09
5.97025847739e-05
2.12451284714e-09
5.97016798031e-05
-1.51911655713e-09
5.9701221109e-05
-3.22811116681e-09
5.97010312288e-05
-3.79366370263e-09
5.97009946516e-05
-3.72691218378e-09
5.97010387113e-05
-3.34524851956e-09
5.97011197198e-05
-2.83816028894e-09
5.97012120034e-05
-2.31383144021e-09
5.97013016592e-05
-1.82880078607e-09
5.97013820502e-05
-1.40854498848e-09
5.97014516488e-05
-1.06119584279e-09
5.9701511127e-05
-7.83877032207e-10
5.97015612746e-05
-5.64344141904e-10
5.97016009291e-05
-3.93071136841e-10
5.97016284853e-05
-2.62753711403e-10
5.97016434818e-05
-1.66023699177e-10
5.97016414813e-05
-9.09236342524e-11
5.9701633213e-05
-2.97469751643e-11
5.97016264115e-05
6.22973499484e-12
5.97016169933e-05
3.68609750001e-11
5.97016064958e-05
5.91544116293e-11
5.97015949213e-05
7.65085662171e-11
5.97015813035e-05
9.2547329531e-11
5.97015652742e-05
1.07113389321e-10
5.97015470537e-05
1.20676190921e-10
5.9701526614e-05
1.33479878751e-10
5.97015038305e-05
1.45434764667e-10
5.97014820285e-05
1.56325642984e-10
5.97014611113e-05
1.65325620093e-10
5.97014423676e-05
1.71158732107e-10
5.97014274265e-05
1.7196511864e-10
5.97014177527e-05
1.65334719293e-10
5.97014116424e-05
1.48628591194e-10
5.97014038003e-05
1.18733657121e-10
5.97014105857e-05
5.05927600742e-11
5.97014229814e-05
-6.27634233209e-11
5.97015117588e-05
-2.88937774352e-10
5.97017034115e-05
-6.39997881348e-10
5.97020059072e-05
-1.16533365114e-09
5.97023958728e-05
-1.97574159545e-09
5.97029781264e-05
-3.18183449469e-09
5.97038356646e-05
-4.99179983494e-09
5.97050821417e-05
-7.7302318529e-09
5.97068828075e-05
-1.18965396544e-08
5.97094760513e-05
-1.82694492047e-08
5.97132061253e-05
-2.80691742829e-08
5.97185629887e-05
-4.32173613238e-08
5.97262273394e-05
-6.67645218137e-08
5.97371004272e-05
-1.03577552829e-07
5.97522446217e-05
-1.61441167681e-07
5.97724970897e-05
-2.52786703827e-07
5.97972653395e-05
-3.97406357214e-07
5.98213916789e-05
-6.26193437627e-07
5.9828001362e-05
-9.85309072902e-07
5.97750592965e-05
-1.53706651416e-06
5.95746610442e-05
-2.34939906146e-06
5.90690241863e-05
-3.46640728497e-06
-4.79522038677e-06
5.80980245654e-05
5.14373050023e-05
2.75268411641e-06
5.42658194269e-05
6.98138659092e-06
5.72496414881e-05
9.13182399974e-06
5.97900253506e-05
9.52529869653e-06
6.17201254527e-05
8.80247066946e-06
6.30883000725e-05
7.53198024529e-06
6.40167133538e-05
6.10987798419e-06
6.46292328307e-05
4.76545133961e-06
6.50257994031e-05
3.60565403641e-06
6.52790734877e-05
2.66169521107e-06
6.54389679476e-05
1.92404072236e-06
6.55386841063e-05
1.36492253769e-06
6.5599921925e-05
9.51299033859e-07
6.56367360116e-05
6.51505192927e-07
6.56581864084e-05
4.38130488269e-07
6.56700939766e-05
2.88827907534e-07
6.56761826155e-05
1.86094823421e-07
6.56788183835e-05
1.1661936572e-07
6.56794883182e-05
7.05084151447e-08
6.56791116507e-05
4.05503678344e-08
6.56782438163e-05
2.15776186373e-08
6.56772124834e-05
9.94767731629e-09
6.56762028511e-05
3.13369607749e-09
6.56752932504e-05
-6.09928566646e-10
6.56745242734e-05
-2.45953625068e-09
6.56738956811e-05
-3.16545730127e-09
6.56733965866e-05
-3.22814007696e-09
6.56730096133e-05
-2.95841113137e-09
6.56727157057e-05
-2.5443627026e-09
6.5672496747e-05
-2.09495818511e-09
6.56723364791e-05
-1.66888199743e-09
6.56722212746e-05
-1.29364355841e-09
6.56721391075e-05
-9.79057454974e-10
6.56720791729e-05
-7.24057000991e-10
6.56720357116e-05
-5.2108325421e-10
6.56720044854e-05
-3.62086780236e-10
6.56719793329e-05
-2.37940357686e-10
6.56719576998e-05
-1.44719174373e-10
6.56719426195e-05
-7.633225925e-11
6.56719407189e-05
-2.84050918529e-11
6.56719389019e-05
7.38128684585e-12
6.56719314776e-05
4.40419231007e-11
6.56719213487e-05
6.89029369852e-11
6.56719087709e-05
8.87995790409e-11
6.56718948142e-05
1.0629523701e-10
6.56718794023e-05
1.22362493572e-10
6.56718624348e-05
1.3756201773e-10
6.56718438078e-05
1.52051856682e-10
6.56718239236e-05
1.65267416138e-10
6.56718049777e-05
1.75367484919e-10
6.56717859171e-05
1.8466277026e-10
6.56717672461e-05
1.90247731019e-10
6.56717501498e-05
1.89586121916e-10
6.56717365946e-05
1.79534135952e-10
6.56717303016e-05
1.55200871197e-10
6.56717389671e-05
1.10724528574e-10
6.56717450929e-05
4.48906625677e-11
6.56717818071e-05
-9.88997019646e-11
6.56718506374e-05
-3.57324448917e-10
6.56719510823e-05
-7.40378627123e-10
6.56721037548e-05
-1.31825211393e-09
6.56723164167e-05
-2.18789540342e-09
6.56726047967e-05
-3.47065520438e-09
6.56729865463e-05
-5.3735028928e-09
6.56734726395e-05
-8.215856921e-09
6.56740608475e-05
-1.2484312197e-08
6.56747213915e-05
-1.89296490412e-08
6.56753691802e-05
-2.87166213474e-08
6.5675804054e-05
-4.36516471638e-08
6.56755992231e-05
-6.65589292421e-08
6.56738862013e-05
-1.01863937462e-07
6.56689329175e-05
-1.56487388676e-07
6.56572079855e-05
-2.41061262289e-07
6.56315871554e-05
-3.71785012899e-07
6.55779265314e-05
-5.72532717827e-07
6.54690066074e-05
-8.76389587951e-07
6.52556861545e-05
-1.32374620014e-06
6.48579658525e-05
-1.95167829639e-06
6.41634566558e-05
-2.77189870295e-06
-3.71385384111e-06
6.30820902425e-05
5.10850419921e-05
1.66764170093e-06
5.3611843379e-05
4.45458433251e-06
5.66873146977e-05
6.05635203515e-06
5.96894442197e-05
6.52316865039e-06
6.22997244631e-05
6.19219004202e-06
6.44136857313e-05
5.41801867739e-06
6.60471816239e-05
4.47638185481e-06
6.72686129027e-05
3.54401983202e-06
6.815989162e-05
2.71437504898e-06
6.87977578042e-05
2.02382865457e-06
6.92467416778e-05
1.47505637733e-06
6.9557959937e-05
1.05370372259e-06
6.97704260052e-05
7.38832358039e-07
6.99131684607e-05
5.08762097892e-07
7.0007379012e-05
3.43919316105e-07
7.0068288106e-05
2.27918252802e-07
7.01066897395e-05
1.47692661569e-07
7.01301317366e-05
9.31769099898e-08
7.01438205989e-05
5.68191123377e-08
7.0151296479e-05
3.30740619365e-08
7.01549287608e-05
1.7944914858e-08
7.01562763646e-05
8.59965537073e-09
7.01563480869e-05
3.06157594954e-09
7.01557559747e-05
-1.81721737651e-11
7.01548950412e-05
-1.59888640192e-09
7.01539714605e-05
-2.24211405632e-09
7.01531028353e-05
-2.35985552641e-09
7.01523429478e-05
-2.19880487697e-09
7.01517089437e-05
-1.91063856035e-09
7.01511979869e-05
-1.58415575914e-09
7.01507971982e-05
-1.26804051213e-09
7.0150489381e-05
-9.86017703618e-10
7.01502571203e-05
-7.46896581723e-10
7.01500841091e-05
-5.51220510876e-10
7.01499573455e-05
-3.9460948286e-10
7.01498661414e-05
-2.71279055638e-10
7.01498034513e-05
-1.75589579971e-10
7.01497618248e-05
-1.03436029384e-10
7.01497332084e-05
-4.80216806066e-11
7.01497029523e-05
1.46622227564e-12
7.01496794299e-05
3.05935088344e-11
7.01496663298e-05
5.68992170008e-11
7.01496558359e-05
7.93589433847e-11
7.01496458994e-05
9.87380457409e-11
7.01496359314e-05
1.1635527347e-10
7.01496255121e-05
1.32963917772e-10
7.01496145665e-05
1.48839181402e-10
7.0149603065e-05
1.63903002762e-10
7.01495908221e-05
1.77808340338e-10
7.01495764654e-05
1.89997025697e-10
7.01495618603e-05
1.99554688505e-10
7.01495479111e-05
2.04665544125e-10
7.01495355299e-05
2.02796373873e-10
7.01495250296e-05
1.90678698312e-10
7.01495159972e-05
1.65038436468e-10
7.01495051329e-05
1.21736957445e-10
7.01495006323e-05
5.01144675218e-11
7.0149489219e-05
-8.70382454604e-11
7.01495024304e-05
-3.6990426995e-10
7.0149526991e-05
-7.64559271742e-10
7.01495514876e-05
-1.34293049152e-09
7.01495555098e-05
-2.19131525502e-09
7.01495115012e-05
-3.42651197413e-09
7.01493667783e-05
-5.22888595552e-09
7.01490226623e-05
-7.87163372389e-09
7.01483041862e-05
-1.17654416245e-08
7.01469099412e-05
-1.75348687305e-08
7.0144328816e-05
-2.61350092575e-08
7.01396874792e-05
-3.90098241411e-08
7.01315058955e-05
-5.83766477918e-08
7.0117295585e-05
-8.76530130089e-08
7.00929045831e-05
-1.32095979404e-07
7.00512480813e-05
-1.99404448481e-07
6.99803600405e-05
-3.00896438421e-07
6.98602870303e-05
-4.52459290944e-07
6.96586052119e-05
-6.74707936549e-07
6.93254365853e-05
-9.90577818334e-07
6.87912882771e-05
-1.4175297275e-06
6.79736570443e-05
-1.95426771545e-06
-2.5547766337e-06
6.68145798942e-05
5.08804128299e-05
7.87228399659e-07
5.31704649744e-05
2.16453121639e-06
5.62177479222e-05
3.00906838049e-06
5.9438267434e-05
3.30264857315e-06
6.24449668914e-05
3.18549017945e-06
6.50382500222e-05
2.82473524652e-06
6.71548633362e-05
2.35976829852e-06
6.88135615512e-05
1.88532137245e-06
7.0073167207e-05
1.45476910803e-06
7.10056637115e-05
1.09133176761e-06
7.16812594235e-05
7.99460175105e-07
7.21614180952e-05
5.73544465531e-07
7.24965982773e-05
4.03651535406e-07
7.27264740597e-05
2.78885641739e-07
7.28812721975e-05
1.89120492594e-07
7.29834612302e-05
1.25728566742e-07
7.30494043461e-05
8.17489413611e-08
7.3090805859e-05
5.17748507753e-08
7.31158992599e-05
3.17252086044e-08
7.31303832855e-05
1.858958123e-08
7.3138137553e-05
1.01902338894e-08
7.31417575797e-05
4.97925481539e-09
7.31429449214e-05
1.87388195521e-09
7.31427981571e-05
1.28262531717e-10
7.31419746878e-05
-7.75706757991e-10
7.31408916329e-05
-1.15926922212e-09
7.31397766055e-05
-1.24510126392e-09
7.31387490883e-05
-1.17151690384e-09
7.31378615816e-05
-1.02326876514e-09
7.31371278669e-05
-8.50591083562e-10
7.31365407174e-05
-6.80900590099e-10
7.31360825614e-05
-5.27957660991e-10
7.31357325814e-05
-3.97108987061e-10
7.31354701257e-05
-2.88997234084e-10
7.31352768876e-05
-2.01527953398e-10
7.31351371423e-05
-1.31778016517e-10
7.31350376008e-05
-7.64789037151e-11
7.31349657927e-05
-3.20513543112e-11
7.31349125215e-05
4.82782773166e-12
7.31348825745e-05
3.09625802731e-11
7.31348590456e-05
5.34574976786e-11
7.31348420839e-05
7.34716327794e-11
7.31348295847e-05
9.15392706767e-11
7.31348197382e-05
1.08385395165e-10
7.3134811386e-05
1.24747528478e-10
7.31348035707e-05
1.40910660431e-10
7.31347957263e-05
1.56956814373e-10
7.3134787427e-05
1.72616580346e-10
7.31347783839e-05
1.87336711349e-10
7.31347685711e-05
2.00277335387e-10
7.31347579828e-05
2.10447324705e-10
7.31347467233e-05
2.16112853549e-10
7.31347349401e-05
2.1493038742e-10
7.31347232639e-05
2.03264519545e-10
7.31347117536e-05
1.7696271346e-10
7.31347018953e-05
1.32273043371e-10
7.31346861272e-05
6.62674404117e-11
7.31346640004e-05
-6.46696027932e-11
7.31346237778e-05
-3.29146443833e-10
7.31345589725e-05
-6.99241617786e-10
7.31344460764e-05
-1.229594478e-09
7.31342419522e-05
-1.98718104995e-09
7.3133878731e-05
-3.06305365046e-09
7.31332416386e-05
-4.59151933355e-09
7.31321378194e-05
-6.76761744416e-09
7.31302458038e-05
-9.8731019766e-09
7.31270382173e-05
-1.43266836558e-08
7.31216603439e-05
-2.07564288805e-08
7.31127003506e-05
-3.00492421283e-08
7.30978544679e-05
-4.35303085181e-08
7.30734159094e-05
-6.32140405954e-08
7.30334895136e-05
-9.21692533435e-08
7.29685655054e-05
-1.34480391699e-07
7.28636318611e-05
-1.95962680263e-07
7.26955306089e-05
-2.84357676462e-07
7.24297735923e-05
-4.08950987891e-07
7.20180194041e-05
-5.78823719675e-07
7.13991002213e-05
-7.98610403849e-07
7.05075056123e-05
-1.06267327891e-06
-1.34593623143e-06
6.92986652191e-05
5.07871722386e-05
5.56543324642e-11
5.29516486337e-05
5.37873207256e-11
5.59606866271e-05
2.9619546933e-11
5.92633195874e-05
1.5009503824e-11
6.24488057759e-05
3.52403396929e-12
6.52735459962e-05
-5.29453591737e-12
6.76333252089e-05
-1.11931183621e-11
6.9518660434e-05
-1.41052782226e-11
7.0973443737e-05
-1.44872211756e-11
7.20647880779e-05
-1.29482232533e-11
7.28642578722e-05
-1.01247237621e-11
7.34378083866e-05
-6.67457689232e-12
7.38414624877e-05
-3.26802580178e-12
7.41203479659e-05
-5.67263839502e-13
7.4309466922e-05
8.0895136103e-13
7.44351942495e-05
5.18715298592e-13
7.45169442648e-05
-1.73345718478e-12
7.45687242343e-05
-5.69324090357e-12
7.46004596591e-05
-1.0724837163e-11
7.46190646273e-05
-1.58378432434e-11
7.46292743434e-05
-1.98913454565e-11
7.46342749941e-05
-2.17813289572e-11
7.46361695247e-05
-2.10175510464e-11
7.46363163193e-05
-1.88678217125e-11
7.46355568933e-05
-1.64989471634e-11
7.46344109928e-05
-1.34651827707e-11
7.46331758258e-05
-9.99607570994e-12
7.46320103117e-05
-6.13446476245e-12
7.46309884362e-05
-1.45509755608e-12
7.46301349718e-05
2.69971172282e-12
7.4629446649e-05
7.28321053628e-12
7.46289063726e-05
1.22352347526e-11
7.46284917221e-05
1.74762764889e-11
7.46281796187e-05
2.30230449568e-11
7.46279488216e-05
2.90914974365e-11
7.46277809229e-05
3.58526174745e-11
7.46276607626e-05
4.33382547763e-11
7.46275767159e-05
5.16392313722e-11
7.4627520578e-05
6.05853042439e-11
7.46274814012e-05
7.00256556661e-11
7.46274549167e-05
7.96967586185e-11
7.46274375475e-05
9.06045263043e-11
7.46274262619e-05
1.02597127178e-10
7.4627418842e-05
1.1558792762e-10
7.46274137759e-05
1.29654329125e-10
7.46274099733e-05
1.44637517458e-10
7.46274066969e-05
1.60283789733e-10
7.46274034283e-05
1.76120620222e-10
7.46273997292e-05
1.91426082491e-10
7.4627395251e-05
2.05251735882e-10
7.46273897798e-05
2.1649078575e-10
7.46273832131e-05
2.23395432372e-10
7.46273748623e-05
2.23377136067e-10
7.46273642888e-05
2.13989101176e-10
7.46273506516e-05
1.91479094845e-10
7.4627331545e-05
1.52071246002e-10
7.46273068881e-05
9.14906240921e-11
7.46272618378e-05
-1.93360978703e-11
7.46271746623e-05
-2.41925188882e-10
7.46270396812e-05
-5.64571835802e-10
7.4626817726e-05
-1.00756653125e-09
7.46264480711e-05
-1.61731160147e-09
7.46258342776e-05
-2.44934222836e-09
7.46248201261e-05
-3.57713896895e-09
7.46231505255e-05
-5.09776593171e-09
7.4620409195e-05
-7.13156173062e-09
7.46159292653e-05
-9.84650690061e-09
7.46086535331e-05
-1.3480403731e-08
7.45968469634e-05
-1.82420853805e-08
7.4577710018e-05
-2.4392801598e-08
7.45468248597e-05
-3.23284562051e-08
7.44974665484e-05
-4.28106332649e-08
7.44189047107e-05
-5.59184471879e-08
7.42947499407e-05
-7.1807973031e-08
7.41006371762e-05
-9.02446374175e-08
7.38017686983e-05
-1.10082626527e-07
7.33515124044e-05
-1.28567474275e-07
7.2693435975e-05
-1.40533857513e-07
7.17695614012e-05
-1.38798901008e-07
-1.14878214661e-07
7.05385033412e-05
5.07871711938e-05
-7.87116080664e-07