/*--------------------------------*- C++ -*----------------------------------*\
| =========                 |                                                 |
| \\      /  F ield         | OpenFOAM: The Open Source CFD Toolbox           |
|  \\    /   O peration     | Version:  2106                                  |
|   \\  /    A nd           | Website:  www.openfoam.com                      |
|    \\/     M anipulation  |                                                 |
\*---------------------------------------------------------------------------*/
FoamFile
{
    version     2.0;
    format      ascii;
    arch        "LSB;label=32;scalar=64";
    class       volVectorField;
    location    "0.41";
    object      U;
}
// * * * * * * * * * * * * * * * * * * * * * * * * * * * * * * * * * * * * * //

dimensions      [0 1 -1 0 0 0 0];

internalField   nonuniform List<vector> 
11200
(
(0.662462402057 0.150569445447 0)
(0.558948666405 0.103243390577 0)
(0.383850724908 0.0513512260064 0)
(0.283747580312 0.0248708567429 0)
(0.232075254493 0.012417046497 0)
(0.201908571926 0.0066228180677 0)
(0.183197919706 0.00380291573074 0)
(0.171276476705 0.00231587146482 0)
(0.163510294606 0.0014645080157 0)
(0.158388756227 0.000944893869732 0)
(0.155006613306 0.000615178417804 0)
(0.152786651446 0.000402235487192 0)
(0.151346492345 0.000264234018416 0)
(0.150428245009 0.00017525195183 0)
(0.149856630209 0.00011836227294 0)
(0.149512418901 8.21611792853e-05 0)
(0.149314849178 5.88666265453e-05 0)
(0.149209478608 4.33160370308e-05 0)
(0.149159610686 3.29348771556e-05 0)
(0.149142361592 2.81866745898e-05 0)
(0.149144507112 2.7685014953e-05 0)
(0.149156770861 2.98906698502e-05 0)
(0.149172379013 3.30513471781e-05 0)
(0.149187912415 3.59669299528e-05 0)
(0.149202107075 3.86023416908e-05 0)
(0.149214363537 4.10410443009e-05 0)
(0.149224514193 4.33178548545e-05 0)
(0.14923266598 4.54640721152e-05 0)
(0.149239055632 4.75189441666e-05 0)
(0.149243965439 4.95295584092e-05 0)
(0.149247680999 5.15577887862e-05 0)
(0.149250468029 5.36947103266e-05 0)
(0.149252522986 5.60234800335e-05 0)
(0.14925401714 5.84049949505e-05 0)
(0.149255081308 6.07680905098e-05 0)
(0.149255800285 6.3090407052e-05 0)
(0.149256272331 6.53824283853e-05 0)
(0.14925658118 6.76569343705e-05 0)
(0.149256779885 6.9926167584e-05 0)
(0.149256898531 7.21961958086e-05 0)
(0.149256958963 7.44681241988e-05 0)
(0.149256979553 7.67430013626e-05 0)
(0.149256972668 7.90209931537e-05 0)
(0.149256947806 8.13003871182e-05 0)
(0.149256910976 8.357998515e-05 0)
(0.149256865937 8.58572980834e-05 0)
(0.149256816383 8.81292798776e-05 0)
(0.149256766723 9.03931158183e-05 0)
(0.149256720674 9.26453867824e-05 0)
(0.149256683725 9.48835982229e-05 0)
(0.149256664095 9.71040910055e-05 0)
(0.149256670829 9.93037052742e-05 0)
(0.149256717499 0.000101479930849 0)
(0.149256823061 0.000103629372068 0)
(0.14925701351 0.000105747783885 0)
(0.149257324977 0.000107829452188 0)
(0.149257808085 0.000109867120588 0)
(0.149258538275 0.000111850472925 0)
(0.149259624813 0.000113766943664 0)
(0.149261226041 0.000115591709899 0)
(0.14926358956 0.000117267784197 0)
(0.149267123434 0.000118713236352 0)
(0.149272291664 0.000119969501584 0)
(0.149279745936 0.00012123223273 0)
(0.149290524236 0.000122963977804 0)
(0.149306143075 0.00012533915647 0)
(0.149328993907 0.000128119172386 0)
(0.149362774342 0.000131077479065 0)
(0.149413074589 0.000134002102805 0)
(0.149488126617 0.000136779651367 0)
(0.149599865067 0.00014068891706 0)
(0.149771129939 0.000151557710383 0)
(0.15003968053 0.000172278192973 0)
(0.150468658718 0.000202520161603 0)
(0.151193855814 0.00023243704489 0)
(0.152492889641 0.000191635583221 0)
(0.155021852437 -0.000216754899703 0)
(0.162374909177 -0.00210988496127 0)
(0.187701910891 -0.0107875422333 0)
(0.204354450622 -0.049654744638 0)
(0.965408252101 0.28921471355 0)
(0.96196284949 0.252656045766 0)
(0.823574372478 0.159021446699 0)
(0.698139342419 0.0959957357439 0)
(0.610225432041 0.0582481182009 0)
(0.548971455654 0.0362148568803 0)
(0.506588848555 0.0231612885404 0)
(0.477567223397 0.0151375184747 0)
(0.457745439198 0.0100177581652 0)
(0.444228399365 0.00665814413084 0)
(0.435053226632 0.0044155593489 0)
(0.42887303414 0.00290686925936 0)
(0.424754104837 0.00189106206228 0)
(0.422046541425 0.00121004895403 0)
(0.420297691056 0.000757166618221 0)
(0.419193069448 0.00045925836657 0)
(0.418515452735 0.000265856364218 0)
(0.41811629529 0.000142400376162 0)
(0.41789568207 6.61096989419e-05 0)
(0.417786621872 2.30921970255e-05 0)
(0.417745198204 1.40725350479e-06 0)
(0.417741911949 -1.01640547969e-05 0)
(0.41775650091 -1.37159246218e-05 0)
(0.417778450917 -1.326993583e-05 0)
(0.417802737242 -1.08383400206e-05 0)
(0.417826100739 -7.49609404443e-06 0)
(0.417846848407 -3.88057010356e-06 0)
(0.417864381704 -3.61599459754e-07 0)
(0.41787870495 2.85971750606e-06 0)
(0.417890134084 5.67995804526e-06 0)
(0.417899141462 8.03407112349e-06 0)
(0.417906219131 9.83590221775e-06 0)
(0.417911567485 1.10051916464e-05 0)
(0.417915422587 1.18573630972e-05 0)
(0.417918158703 1.2681408253e-05 0)
(0.417920047977 1.34400624581e-05 0)
(0.417921336759 1.4115628894e-05 0)
(0.417922216728 1.47319533613e-05 0)
(0.417922813339 1.53172399961e-05 0)
(0.41792319814 1.58851526183e-05 0)
(0.417923424335 1.64370919928e-05 0)
(0.417923536469 1.69779966728e-05 0)
(0.417923564893 1.75122530676e-05 0)
(0.41792353331 1.80429880033e-05 0)
(0.417923458547 1.85737845999e-05 0)
(0.417923351494 1.91075930267e-05 0)
(0.417923223078 1.96439872725e-05 0)
(0.417923084008 2.01862873421e-05 0)
(0.417922945196 2.07352236076e-05 0)
(0.417922820116 2.12943549752e-05 0)
(0.417922727238 2.18633880572e-05 0)
(0.417922691824 2.24419889627e-05 0)
(0.417922748532 2.30306459223e-05 0)
(0.417922944525 2.36292789509e-05 0)
(0.417923345586 2.42374369714e-05 0)
(0.417924044252 2.4853986638e-05 0)
(0.417925171539 2.54750028073e-05 0)
(0.417926921662 2.60881277619e-05 0)
(0.417929572504 2.66769987002e-05 0)
(0.417933513017 2.72134027833e-05 0)
(0.417939349559 2.76427729096e-05 0)
(0.417948182282 2.79217707709e-05 0)
(0.417961494829 2.8209050585e-05 0)
(0.41798143053 2.77476595179e-05 0)
(0.418010751316 2.51219879102e-05 0)
(0.418053063566 1.92765135355e-05 0)
(0.418114569143 9.41005942932e-06 0)
(0.418205390601 -6.01581463239e-06 0)
(0.418341126224 -2.95250820118e-05 0)
(0.418546667785 -6.47964374426e-05 0)
(0.418863907166 -0.000116019053447 0)
(0.419362427872 -0.000188158817474 0)
(0.420155678667 -0.000307933571398 0)
(0.421447288051 -0.000532893566635 0)
(0.423628840393 -0.000999837374022 0)
(0.427418910794 -0.00209040887504 0)
(0.434239417145 -0.0048560214258 0)
(0.448264847294 -0.0122528632378 0)
(0.47464137906 -0.0342385729112 0)
(0.478158339229 -0.0987606295855 0)
(1.02222096295 0.238416196383 0)
(1.08213751924 0.295926661222 0)
(1.03447720651 0.239503074411 0)
(0.954615382111 0.174290171828 0)
(0.879992023182 0.12134547509 0)
(0.818614399064 0.0830993899843 0)
(0.771410810488 0.056731672188 0)
(0.736634346693 0.038740972796 0)
(0.711624383506 0.0264327906532 0)
(0.693916565056 0.0179731080971 0)
(0.681541347093 0.0121424512891 0)
(0.673000044975 0.00812491180098 0)
(0.667180569229 0.00536632488475 0)
(0.663271588019 0.00348444862659 0)
(0.66068840552 0.00221256513168 0)
(0.659014070159 0.00136338496809 0)
(0.65795437865 0.000805246169369 0)
(0.657304075651 0.000445917984599 0)
(0.656921647494 0.000221068611478 0)
(0.656710072488 8.55800467896e-05 0)
(0.656603198419 8.3554269187e-06 0)
(0.656561639489 -3.37235500089e-05 0)
(0.6565577287 -5.68593825398e-05 0)
(0.656571193831 -6.6879667571e-05 0)
(0.656592713136 -6.84882094125e-05 0)
(0.656616523259 -6.55676688885e-05 0)
(0.656639317199 -6.05573108367e-05 0)
(0.656659488644 -5.48677049171e-05 0)
(0.656676453139 -4.92827722508e-05 0)
(0.656690188395 -4.42093401658e-05 0)
(0.656700939708 -3.98430668595e-05 0)
(0.656709091346 -3.63040847739e-05 0)
(0.656715338606 -3.36959524286e-05 0)
(0.656720373853 -3.18556926478e-05 0)
(0.656724237637 -3.08107493279e-05 0)
(0.656726941346 -3.03033148979e-05 0)
(0.656728800672 -3.02460322716e-05 0)
(0.656730094403 -3.05551256557e-05 0)
(0.656730989234 -3.10825251267e-05 0)
(0.656731576848 -3.1745216346e-05 0)
(0.656731931696 -3.25131507683e-05 0)
(0.656732119468 -3.33507151344e-05 0)
(0.656732185481 -3.42335017444e-05 0)
(0.656732164768 -3.51418903291e-05 0)
(0.65673208312 -3.60616624063e-05 0)
(0.65673195646 -3.69798537014e-05 0)
(0.656731801604 -3.7890147444e-05 0)
(0.656731635657 -3.87870685585e-05 0)
(0.656731474867 -3.96669097079e-05 0)
(0.656731338299 -4.05226101931e-05 0)
(0.65673124998 -4.13514351003e-05 0)
(0.65673124577 -4.21490585385e-05 0)
(0.656731375996 -4.29141519904e-05 0)
(0.656731710026 -4.36500045077e-05 0)
(0.656732345318 -4.43705602156e-05 0)
(0.656733417594 -4.51065667545e-05 0)
(0.656735115013 -4.59151279535e-05 0)
(0.656737717821 -4.68904091307e-05 0)
(0.656741637525 -4.81603684596e-05 0)
(0.65674746726 -4.99429978752e-05 0)
(0.656756146563 -5.27569959754e-05 0)
(0.656769327768 -5.75825984103e-05 0)
(0.656788307921 -6.52439090931e-05 0)
(0.65681453452 -7.65905374231e-05 0)
(0.656851878315 -9.33277849447e-05 0)
(0.656907054468 -0.000117848953373 0)
(0.656989433681 -0.000153353041665 0)
(0.657112806553 -0.000205128442616 0)
(0.657298992367 -0.000281697431067 0)
(0.657583386837 -0.000396932018825 0)
(0.658024114598 -0.000575177944699 0)
(0.658710357708 -0.000863694403789 0)
(0.659789151443 -0.00135253982956 0)
(0.661517999014 -0.00221480320892 0)
(0.66433898853 -0.00381296417595 0)
(0.66894773815 -0.00694569277763 0)
(0.676369890044 -0.0133513644542 0)
(0.688612876792 -0.0268404827244 0)
(0.705235071695 -0.0563125352598 0)
(0.700483397386 -0.113068233118 0)
(1.02251475203 0.170807165033 0)
(1.10138974626 0.276496490501 0)
(1.11752424011 0.266664810453 0)
(1.0921465767 0.219901709338 0)
(1.05187812096 0.168168857057 0)
(1.01020818406 0.123567404974 0)
(0.973494645289 0.0888375287467 0)
(0.943864504596 0.0630063777537 0)
(0.921142740859 0.0442232094722 0)
(0.904284004844 0.0307423978401 0)
(0.892074790146 0.0211562991641 0)
(0.883404420028 0.0143954738047 0)
(0.877352567324 0.00966795371688 0)
(0.873197591555 0.00639384271168 0)
(0.87039280226 0.00415117000783 0)
(0.868533901406 0.00263449527106 0)
(0.867327492944 0.00162402058767 0)
(0.866564078817 0.000962677669621 0)
(0.866096310981 0.000539122233586 0)
(0.865822058537 0.000275151599972 0)
(0.865671204413 0.000117064634207 0)
(0.865594943668 2.87871720918e-05 0)
(0.86556387569 -1.9331374535e-05 0)
(0.86556105787 -4.12689656252e-05 0)
(0.865572392746 -4.76740294312e-05 0)
(0.865589390941 -4.55339717445e-05 0)
(0.865607693649 -3.91645146237e-05 0)
(0.865625027504 -3.11531096582e-05 0)
(0.86564030932 -2.29709882149e-05 0)
(0.865653171662 -1.53858878975e-05 0)
(0.86566364525 -8.72694956686e-06 0)
(0.865671934549 -3.04579722016e-06 0)
(0.865678290506 1.7352458372e-06 0)
(0.865682918928 5.46942257015e-06 0)
(0.865686239493 8.03486163962e-06 0)
(0.86568863826 9.79095488136e-06 0)
(0.865690268993 1.11448486876e-05 0)
(0.865691427707 1.22894555353e-05 0)
(0.865692290635 1.32584879922e-05 0)
(0.865692877845 1.41439364457e-05 0)
(0.865693237699 1.49377305149e-05 0)
(0.865693435174 1.5662669418e-05 0)
(0.865693508614 1.63349589104e-05 0)
(0.865693490077 1.69696414761e-05 0)
(0.865693404007 1.758260072e-05 0)
(0.865693265658 1.81831021184e-05 0)
(0.865693089015 1.87805481018e-05 0)
(0.865692891135 1.93788604742e-05 0)
(0.865692693175 1.99862982406e-05 0)
(0.865692518296 2.06127213819e-05 0)
(0.865692396228 2.12434307367e-05 0)
(0.865692369347 2.18659237436e-05 0)
(0.865692491757 2.24635992557e-05 0)
(0.865692834573 2.30095611683e-05 0)
(0.865693493032 2.34673878289e-05 0)
(0.8656945982 2.38052055163e-05 0)
(0.865696334831 2.39781580649e-05 0)
(0.865698994241 2.38683160453e-05 0)
(0.865702982832 2.33331119845e-05 0)
(0.865708712964 2.19501598612e-05 0)
(0.865716674523 1.91623133825e-05 0)
(0.865728479688 1.42446223908e-05 0)
(0.865746708252 5.37397154331e-06 0)
(0.865774342088 -9.01916216523e-06 0)
(0.865815241777 -3.09344364769e-05 0)
(0.865875338373 -6.43427468241e-05 0)
(0.865963980305 -0.000116120708105 0)
(0.866095680064 -0.00019702497357 0)
(0.866292985621 -0.000324309148954 0)
(0.866590715081 -0.000526441358574 0)
(0.867042464204 -0.000852356969188 0)
(0.867733278691 -0.00138897108025 0)
(0.868799473595 -0.00228501311895 0)
(0.870454242513 -0.00381500458771 0)
(0.873016363478 -0.00650307191857 0)
(0.876884548264 -0.0113584060253 0)
(0.882381010574 -0.0202496844305 0)
(0.889688538091 -0.0364468646414 0)
(0.896361617446 -0.0654805837359 0)
(0.886529872811 -0.110021664546 0)
(1.01287874828 0.11896103902 0)
(1.08820669564 0.231806952109 0)
(1.1374136475 0.253106779247 0)
(1.15409083482 0.228992767277 0)
(1.14994206919 0.188368371541 0)
(1.13538460902 0.146579855469 0)
(1.11758889703 0.110150975835 0)
(1.1005949453 0.0808162311372 0)
(1.08612450766 0.058226584436 0)
(1.07459085242 0.0413189925651 0)
(1.06579138427 0.0289160277104 0)
(1.05928789478 0.0199601076497 0)
(1.05459965685 0.0135815679845 0)
(1.05129064548 0.00909745107529 0)
(1.04899971455 0.00598616153144 0)
(1.04744325876 0.00385697313245 0)
(1.04640637338 0.00242160332392 0)
(1.04573044671 0.00147015387478 0)
(1.04530088059 0.000851703543494 0)
(1.04503637294 0.000459015658753 0)
(1.04487999978 0.000216753963745 0)
(1.04479237317 7.30129208122e-05 0)
(1.04474849805 -5.51076250578e-06 0)
(1.04473158929 -4.40164936449e-05 0)
(1.04472933007 -5.93945834618e-05 0)
(1.04473480651 -6.17286274257e-05 0)
(1.04474374805 -5.72549039333e-05 0)
(1.0447536271 -4.98121826737e-05 0)
(1.04476306474 -4.16520742329e-05 0)
(1.04477139036 -3.39957967984e-05 0)
(1.04477835331 -2.74292649533e-05 0)
(1.04478394078 -2.21555364958e-05 0)
(1.0447882974 -1.81310257437e-05 0)
(1.0447916329 -1.51413078117e-05 0)
(1.0447942031 -1.2808627618e-05 0)
(1.04479630245 -1.10116123068e-05 0)
(1.04479804064 -9.52201435975e-06 0)
(1.04479936264 -8.23269177532e-06 0)
(1.04480033818 -7.21403362325e-06 0)
(1.04480101946 -6.54698331925e-06 0)
(1.04480142965 -6.16911594562e-06 0)
(1.04480165594 -5.96259272538e-06 0)
(1.04480174296 -5.87694949603e-06 0)
(1.04480173073 -5.86169561712e-06 0)
(1.04480164552 -5.8765279932e-06 0)
(1.04480150306 -5.90201695012e-06 0)
(1.04480132076 -5.92860586512e-06 0)
(1.0448011196 -5.9518132568e-06 0)
(1.04480092647 -5.97507125491e-06 0)
(1.04480074824 -6.01119134877e-06 0)
(1.04480059987 -6.04296822909e-06 0)
(1.044800527 -6.06840987968e-06 0)
(1.04480058474 -6.09369030568e-06 0)
(1.04480084957 -6.13511636517e-06 0)
(1.04480144788 -6.23435372117e-06 0)
(1.0448025558 -6.51596102685e-06 0)
(1.04480435851 -7.23084060265e-06 0)
(1.04480715675 -8.65444496483e-06 0)
(1.04481125831 -1.12871386128e-05 0)
(1.04481713415 -1.51220839148e-05 0)
(1.04482579705 -2.00530727308e-05 0)
(1.04483839568 -2.62997933731e-05 0)
(1.04485623933 -3.61295821266e-05 0)
(1.0448816301 -5.25328279084e-05 0)
(1.04491803468 -7.9715938062e-05 0)
(1.04497060983 -0.000123919999707 0)
(1.0450469647 -0.00019491747992 0)
(1.04515845063 -0.000308287534375 0)
(1.04532221454 -0.000489189127224 0)
(1.04556411827 -0.000778635145882 0)
(1.04592283549 -0.00124392896057 0)
(1.04645620868 -0.00199668654311 0)
(1.04724832994 -0.00322739801182 0)
(1.04841210392 -0.00526675441016 0)
(1.050074775 -0.00869144322192 0)
(1.05229291056 -0.0144949362583 0)
(1.05482241598 -0.0242838046005 0)
(1.05687364664 -0.0403672310235 0)
(1.05574096356 -0.0655834661042 0)
(1.04212772927 -0.0994342614751 0)
(1.00447483184 0.0814040151688 0)
(1.06917236036 0.18128855608 0)
(1.13080566169 0.216950435331 0)
(1.17374996967 0.210789171239 0)
(1.19865261099 0.183690091276 0)
(1.21019983403 0.149751696401 0)
(1.2135025072 0.116779155678 0)
(1.21251718539 0.0882206882677 0)
(1.20973092181 0.0650481604453 0)
(1.20651112717 0.0470209179069 0)
(1.20351905422 0.0334068174757 0)
(1.20101136166 0.0233557416632 0)
(1.19903434842 0.0160720231811 0)
(1.19753866343 0.0108795231401 0)
(1.19644118518 0.00723419716511 0)
(1.19565544305 0.00471352679538 0)
(1.19510473458 0.00299763606881 0)
(1.19472630956 0.00184916603849 0)
(1.19447131718 0.00109496360789 0)
(1.19430299608 0.000610612009857 0)
(1.19419434609 0.000307984701609 0)
(1.19412605085 0.000125764176124 0)
(1.19408499075 2.22164702738e-05 0)
(1.19406172211 -3.24606205497e-05 0)
(1.19404941266 -5.72804822609e-05 0)
(1.19404390555 -6.46067655007e-05 0)
(1.19404240037 -6.23848793802e-05 0)
(1.1940430789 -5.55301160536e-05 0)
(1.19404482577 -4.69523063961e-05 0)
(1.19404698299 -3.82657335569e-05 0)
(1.19404917778 -3.02704854998e-05 0)
(1.19405121766 -2.32733339986e-05 0)
(1.19405303222 -1.72978067386e-05 0)
(1.19405461542 -1.22685690904e-05 0)
(1.19405598424 -8.07851729931e-06 0)
(1.19405715704 -4.6756177792e-06 0)
(1.19405810526 -2.06406378383e-06 0)
(1.19405877546 -1.75442417588e-07 0)
(1.19405912711 1.14098656104e-06 0)
(1.19405923797 1.99711000968e-06 0)
(1.19405929017 2.67541961951e-06 0)
(1.19405931922 3.27627436609e-06 0)
(1.19405929958 3.80100454184e-06 0)
(1.19405924933 4.26008220324e-06 0)
(1.19405916474 4.66215841963e-06 0)
(1.19405903588 5.02542795271e-06 0)
(1.19405886492 5.36202726319e-06 0)
(1.19405865997 5.67625749911e-06 0)
(1.19405843053 5.95961131698e-06 0)
(1.19405821873 6.19425037088e-06 0)
(1.19405807105 6.40379430634e-06 0)
(1.1940580176 6.58202376861e-06 0)
(1.19405810709 6.70222486114e-06 0)
(1.19405839541 6.7239489688e-06 0)
(1.19405891065 6.58728165739e-06 0)
(1.19405964183 6.19436802447e-06 0)
(1.19406068841 5.40059043039e-06 0)
(1.19406219081 3.80225895909e-06 0)
(1.19406485578 1.01926012516e-06 0)
(1.19406970339 -3.25712182656e-06 0)
(1.1940772175 -9.81172937434e-06 0)
(1.19408735408 -2.00154456329e-05 0)
(1.19410089738 -3.58843132032e-05 0)
(1.19411984715 -6.03508975137e-05 0)
(1.19414633141 -9.79941075342e-05 0)
(1.19418317268 -0.000156128858608 0)
(1.19423436826 -0.000246402659961 0)
(1.19430555892 -0.000387297032688 0)
(1.19440463721 -0.000608269144878 0)
(1.19454238662 -0.000956645050574 0)
(1.19473285413 -0.0015089239167 0)
(1.19499281653 -0.00238936856914 0)
(1.19533709498 -0.00380116924453 0)
(1.19576295053 -0.00607718559512 0)
(1.19621005094 -0.00975613631665 0)
(1.19645866987 -0.0156816301127 0)
(1.19592202933 -0.0250642354039 0)
(1.19344570956 -0.0393590938603 0)
(1.18669487645 -0.0598084859147 0)
(1.17015173259 -0.0851015027668 0)
(0.998962322756 0.0544316441125 0)
(1.05310955505 0.133401625754 0)
(1.11628265602 0.170777575639 0)
(1.17301268396 0.175143888682 0)
(1.21791242013 0.159583621778 0)
(1.25049853148 0.134951034347 0)
(1.27288485974 0.108411669887 0)
(1.28776716514 0.0838849838331 0)
(1.29745261803 0.0630565838147 0)
(1.30366068097 0.046299932694 0)
(1.30759226465 0.0333205263544 0)
(1.31005361143 0.0235495359206 0)
(1.31157352306 0.0163599199494 0)
(1.31249481279 0.0111713273653 0)
(1.31303849274 0.00749151841097 0)
(1.31334657178 0.00492449643121 0)
(1.31350997391 0.00316296396641 0)
(1.31358659296 0.00197475807235 0)
(1.31361295919 0.00118820041873 0)
(1.3136118002 0.000678629773055 0)
(1.31359695371 0.00035700581147 0)
(1.31357662418 0.000160748548075 0)
(1.31355562204 4.64610782057e-05 0)
(1.31353631985 -1.5879803883e-05 0)
(1.31351965624 -4.60697543538e-05 0)
(1.3135059628 -5.70805793286e-05 0)
(1.31349505471 -5.73349961728e-05 0)
(1.31348659568 -5.20962383922e-05 0)
(1.31348019768 -4.45331161169e-05 0)
(1.31347547528 -3.64705787395e-05 0)
(1.31347207636 -2.88819433203e-05 0)
(1.31346969689 -2.2219670465e-05 0)
(1.31346807898 -1.66373113615e-05 0)
(1.31346699343 -1.21401375761e-05 0)
(1.31346627314 -8.66308701047e-06 0)
(1.31346582088 -6.10520381808e-06 0)
(1.31346553487 -4.32987557996e-06 0)
(1.3134653265 -3.12876581832e-06 0)
(1.31346519383 -2.27165622394e-06 0)
(1.31346522206 -1.5531748856e-06 0)
(1.31346537271 -9.77898403669e-07 0)
(1.31346547026 -5.65666005398e-07 0)
(1.3134654652 -2.06991678054e-07 0)
(1.313465387 1.27752222255e-07 0)
(1.31346525906 4.35180464993e-07 0)
(1.31346509446 7.22807084351e-07 0)
(1.31346489624 1.00377914185e-06 0)
(1.31346466728 1.28832631705e-06 0)
(1.31346441616 1.58695320155e-06 0)
(1.31346417668 1.90210732074e-06 0)
(1.31346397372 2.18386787862e-06 0)
(1.31346381522 2.39278347853e-06 0)
(1.31346373225 2.48404269183e-06 0)
(1.31346377953 2.39604611016e-06 0)
(1.31346404431 2.04302230525e-06 0)
(1.31346464518 1.34560142979e-06 0)
(1.31346553792 2.34661674844e-07 0)
(1.31346684802 -1.45015003224e-06 0)
(1.31346899762 -3.97071763725e-06 0)
(1.31347217077 -8.06356620339e-06 0)
(1.31347659103 -1.49969350593e-05 0)
(1.31348249636 -2.63418364654e-05 0)
(1.31349016605 -4.36864420021e-05 0)
(1.31350008843 -7.02142077403e-05 0)
(1.31351259242 -0.000110960351513 0)
(1.31352776388 -0.000173670301882 0)
(1.31354522835 -0.000270425087295 0)
(1.31356368489 -0.000420180724178 0)
(1.31357995904 -0.000652751914038 0)
(1.31358716355 -0.00101535129999 0)
(1.31357125875 -0.00158296114252 0)
(1.313504835 -0.0024745977821 0)
(1.31333371692 -0.00387745413611 0)
(1.31295040764 -0.00608378669908 0)
(1.31214501698 -0.00953790393121 0)
(1.31051236645 -0.0148810571581 0)
(1.30729941847 -0.0229410753016 0)
(1.30129708672 -0.0345577077659 0)
(1.29063849746 -0.0501675375025 0)
(1.27185317022 -0.068543107986 0)
(0.995736071287 0.0346338786768 0)
(1.0417951308 0.0905689391402 0)
(1.10222836234 0.121549582218 0)
(1.16491408352 0.129605850695 0)
(1.22202562481 0.122009284096 0)
(1.26951887797 0.106019953137 0)
(1.3068021925 0.0870975700484 0)
(1.33499530529 0.0686366944859 0)
(1.35574472251 0.0523698521396 0)
(1.37069610997 0.0389256311319 0)
(1.38128268984 0.0282980869373 0)
(1.38866260156 0.020171291143 0)
(1.393730246 0.014117524639 0)
(1.39715650705 0.00970535021095 0)
(1.39943423516 0.00655060895464 0)
(1.40091954397 0.00433446721522 0)
(1.4018660779 0.0028041556216 0)
(1.40245208705 0.00176575131379 0)
(1.40280117425 0.0010742003597 0)
(1.40299786144 0.000623237038171 0)
(1.40309907381 0.000336407879078 0)
(1.40314251891 0.000159618612499 0)
(1.40315277179 5.51569918433e-05 0)
(1.40314527654 -3.00728902353e-06 0)
(1.40312951223 -3.21339724354e-05 0)
(1.40311110665 -4.39029381879e-05 0)
(1.40309306653 -4.57733882521e-05 0)
(1.4030769167 -4.24311172359e-05 0)
(1.40306325925 -3.67403873142e-05 0)
(1.40305216741 -3.03772419286e-05 0)
(1.40304344003 -2.42579457826e-05 0)
(1.40303674989 -1.88272988664e-05 0)
(1.40303173559 -1.42543369383e-05 0)
(1.40302804792 -1.05426105833e-05 0)
(1.40302538745 -7.59082431904e-06 0)
(1.40302352143 -5.27345744124e-06 0)
(1.40302227346 -3.46815011917e-06 0)
(1.40302149343 -2.0313432569e-06 0)
(1.40302101599 -8.59044031949e-07 0)
(1.40302064466 7.33225417795e-08 0)
(1.4030203131 7.83068401433e-07 0)
(1.40302010641 1.27206401354e-06 0)
(1.40302001094 1.64262478002e-06 0)
(1.40301993369 1.96021879337e-06 0)
(1.40301984043 2.26245250094e-06 0)
(1.40301972541 2.56688119125e-06 0)
(1.40301958744 2.88245056578e-06 0)
(1.40301942866 3.2135123483e-06 0)
(1.40301924989 3.56094523022e-06 0)
(1.40301904413 3.91685256394e-06 0)
(1.40301882283 4.23945987045e-06 0)
(1.40301861984 4.49541826045e-06 0)
(1.40301846591 4.64544444261e-06 0)
(1.40301838508 4.63052000841e-06 0)
(1.40301839163 4.36492945823e-06 0)
(1.40301848878 3.70339968577e-06 0)
(1.40301870461 2.44131665923e-06 0)
(1.40301901786 4.63742487191e-07 0)
(1.4030196634 -2.6705294396e-06 0)
(1.40302084496 -7.70717719597e-06 0)
(1.40302238456 -1.54496731565e-05 0)
(1.40302396498 -2.72206916984e-05 0)
(1.4030251199 -4.48828896661e-05 0)
(1.40302510567 -7.14157780276e-05 0)
(1.40302244139 -0.000111414258234 0)
(1.40301439386 -0.000171911212927 0)
(1.4029961627 -0.000263779766329 0)
(1.40295957044 -0.00040389295941 0)
(1.40289069335 -0.000618310603083 0)
(1.40276583746 -0.000947639447361 0)
(1.40254498717 -0.00145519479051 0)
(1.40216181881 -0.00223938789052 0)
(1.40150484206 -0.00344924046532 0)
(1.40038579891 -0.00530841976229 0)
(1.39849151948 -0.00813964182403 0)
(1.395309025 -0.0123775589515 0)
(1.39002551783 -0.018532915515 0)
(1.38149330425 -0.0270431492052 0)
(1.36821703173 -0.037989662116 0)
(1.34780574197 -0.0504798190919 0)
(0.994011528522 0.0192358238478 0)
(1.03484762248 0.0523338567533 0)
(1.09199260089 0.0723631432954 0)
(1.15662416506 0.0791292474102 0)
(1.22032112292 0.0761045611682 0)
(1.2770194088 0.0673339857579 0)
(1.32424414275 0.0561509175609 0)
(1.36181568739 0.0447990249315 0)
(1.39068525598 0.0345303917235 0)
(1.41226069271 0.0258814469978 0)
(1.42801815619 0.0189465392238 0)
(1.43929876457 0.0135849980005 0)
(1.44722798518 0.00955655059606 0)
(1.45270402725 0.00660013164746 0)
(1.45641883843 0.00447420587471 0)
(1.45889131086 0.00297352808268 0)
(1.46050216334 0.0019327814815 0)
(1.46152554915 0.00122370418056 0)
(1.46215555501 0.000749557982117 0)
(1.4625273708 0.000439021901414 0)
(1.46273363976 0.000240521865696 0)
(1.4628367751 0.000117409362449 0)
(1.46287807097 4.40439870065e-05 0)
(1.46288430366 2.68320875269e-06 0)
(1.46287217404 -1.84547028371e-05 0)
(1.46285181979 -2.74506476971e-05 0)
(1.46282926652 -2.94520642045e-05 0)
(1.46280772677 -2.77025258064e-05 0)
(1.46278872955 -2.42011515496e-05 0)
(1.46277281838 -2.01275757971e-05 0)
(1.46275998473 -1.61326091575e-05 0)
(1.46274993397 -1.25391876915e-05 0)
(1.46274225431 -9.472030313e-06 0)
(1.46273651369 -6.94338184422e-06 0)
(1.4627323135 -4.89896025741e-06 0)
(1.46272931072 -3.26931427252e-06 0)
(1.46272721572 -1.99129720585e-06 0)
(1.46272577165 -1.02429602358e-06 0)
(1.46272476851 -3.23123208475e-07 0)
(1.46272414195 1.98414002101e-07 0)
(1.46272377585 6.82357278607e-07 0)
(1.46272352389 1.1595185465e-06 0)
(1.46272335606 1.58429104138e-06 0)
(1.46272323058 1.96299795132e-06 0)
(1.46272311917 2.3179451437e-06 0)
(1.46272300305 2.66187252722e-06 0)
(1.46272286861 2.99997632698e-06 0)
(1.46272270772 3.32960934023e-06 0)
(1.46272251595 3.64153782197e-06 0)
(1.46272229084 3.92336783746e-06 0)
(1.46272203517 4.16710538472e-06 0)
(1.46272175643 4.34163451798e-06 0)
(1.46272146253 4.3968609965e-06 0)
(1.46272116777 4.25718457688e-06 0)
(1.46272088661 3.83293530877e-06 0)
(1.46272063748 3.01956152945e-06 0)
(1.46272038587 1.69802299433e-06 0)
(1.46272004224 -2.72088215661e-07 0)
(1.4627194883 -3.11058264578e-06 0)
(1.4627185813 -7.70681729543e-06 0)
(1.462717043 -1.4841109976e-05 0)
(1.46271419849 -2.56021608392e-05 0)
(1.46270893378 -4.15435535588e-05 0)
(1.46269944513 -6.5047471827e-05 0)
(1.46268267251 -9.97153352877e-05 0)
(1.46265348201 -0.000150943595892 0)
(1.46260336947 -0.000226915931616 0)
(1.46251857982 -0.000340107870341 0)
(1.46237666073 -0.000509134275694 0)
(1.46214079081 -0.000762410515023 0)
(1.4617510183 -0.00114367430365 0)
(1.46111276206 -0.00172059196562 0)
(1.46007496609 -0.00258890724827 0)
(1.45839673115 -0.00388812728733 0)
(1.45570423802 -0.0058106007516 0)
(1.45143224918 -0.00859938028855 0)
(1.44476064635 -0.0125145156489 0)
(1.43462076999 -0.0177362982178 0)
(1.41975376993 -0.0242127822479 0)
(1.39831471417 -0.0313977331504 0)
(0.993269664488 0.00617016601982 0)
(1.03158098625 0.0171020600799 0)
(1.08672179142 0.0239906625192 0)
(1.15174550896 0.0265606798165 0)
(1.21823532152 0.0258180730348 0)
(1.27925769666 0.0230489001056 0)
(1.3314013125 0.0193656455415 0)
(1.37377593787 0.0155468724078 0)
(1.40691048136 0.012044945295 0)
(1.43203307654 0.00906641551756 0)
(1.45060208328 0.0066606113668 0)
(1.46402978125 0.0047901089136 0)
(1.47355007084 0.003378446401 0)
(1.48017553011 0.00233875642179 0)
(1.48470217024 0.00158893183057 0)
(1.48773607379 0.00105830580778 0)
(1.48972719947 0.00068947801333 0)
(1.49100261891 0.000437651380195 0)
(1.49179568977 0.000268895863248 0)
(1.49227005238 0.000158117977698 0)
(1.49253853739 8.71280816127e-05 0)
(1.49267760784 4.29748604944e-05 0)
(1.49273813602 1.65816842251e-05 0)
(1.4927533051 1.65808917901e-06 0)
(1.49274406457 -6.07704976067e-06 0)
(1.49272327475 -9.42416701133e-06 0)
(1.49269863005 -1.02321613807e-05 0)
(1.49267435749 -9.66980103819e-06 0)
(1.49265255601 -8.45615882657e-06 0)
(1.4926340659 -7.01113310537e-06 0)
(1.49261900908 -5.57211352546e-06 0)
(1.49260712484 -4.26109937096e-06 0)
(1.49259798251 -3.12467791328e-06 0)
(1.49259110638 -2.16939577173e-06 0)
(1.49258604212 -1.37881711125e-06 0)
(1.49258238845 -7.31300866634e-07 0)
(1.49257980911 -2.05895917673e-07 0)
(1.49257803457 2.21067932631e-07 0)
(1.49257685866 5.94192235742e-07 0)
(1.49257610526 9.6441968329e-07 0)
(1.4925756207 1.27068688345e-06 0)
(1.49257531222 1.55760031789e-06 0)
(1.4925751243 1.8400700344e-06 0)
(1.49257500416 2.12842147539e-06 0)
(1.49257491317 2.43061230171e-06 0)
(1.49257482496 2.7485468889e-06 0)
(1.49257472101 3.08184515488e-06 0)
(1.49257458831 3.42595294154e-06 0)
(1.49257441707 3.77180979466e-06 0)
(1.49257419889 4.10511399282e-06 0)
(1.49257392781 4.40659323051e-06 0)
(1.4925736009 4.6448322936e-06 0)
(1.4925732097 4.77335703205e-06 0)
(1.49257274183 4.73214758678e-06 0)
(1.49257218167 4.43053718205e-06 0)
(1.49257150025 3.75301074305e-06 0)
(1.49257068088 2.54859745843e-06 0)
(1.49256958311 7.31093194975e-07 0)
(1.49256779352 -1.93523330486e-06 0)
(1.49256502055 -6.08674372131e-06 0)
(1.49256086534 -1.22552504191e-05 0)
(1.49255430474 -2.12179139121e-05 0)
(1.49254372588 -3.40599793848e-05 0)
(1.49252659024 -5.23386687641e-05 0)
(1.49249878776 -7.8255485942e-05 0)
(1.49245362093 -0.000114844534155 0)
(1.49238021734 -0.000166480001048 0)
(1.4922615083 -0.000239666444137 0)
(1.49207014196 -0.000342913059839 0)
(1.49176153315 -0.000488758482039 0)
(1.49126339203 -0.000697363002783 0)
(1.4904669785 -0.00100248641105 0)
(1.48920295132 -0.00143660538652 0)
(1.48720551993 -0.00204720850658 0)
(1.48407632055 -0.00289564821324 0)
(1.47923565545 -0.00404940444724 0)
(1.47187688054 -0.00556274150259 0)
(1.46098677426 -0.00743715010247 0)
(1.44541854517 -0.00957857968772 0)
(1.42356334482 -0.0117385290879 0)
(0.993270462156 -0.00616838862945 0)
(1.03158096858 -0.0171003646337 0)
(1.08672172486 -0.0239897504037 0)
(1.15174554648 -0.026560235212 0)
(1.21823539912 -0.0258179808693 0)
(1.27925779829 -0.0230490976111 0)
(1.33140143859 -0.0193660341405 0)