/*--------------------------------*- C++ -*----------------------------------*\
| =========                 |                                                 |
| \\      /  F ield         | OpenFOAM: The Open Source CFD Toolbox           |
|  \\    /   O peration     | Version:  2106                                  |
|   \\  /    A nd           | Website:  www.openfoam.com                      |
|    \\/     M anipulation  |                                                 |
\*---------------------------------------------------------------------------*/
FoamFile
{
    version     2.0;
    format      ascii;
    arch        "LSB;label=32;scalar=64";
    class       surfaceScalarField;
    location    "0.012";
    object      phi;
}
// * * * * * * * * * * * * * * * * * * * * * * * * * * * * * * * * * * * * * //

dimensions      [0 3 -1 0 0 0 0];

oriented        oriented;

internalField   nonuniform List<scalar> 
799
(
2.09385e-32
5.18602e-32
6.81328e-32
6.03523e-32
3.81505e-32
-2.566e-32
-8.22395e-32
-1.25354e-31
-1.32676e-31
-9.22355e-32
-3.38074e-32
3.1039e-32
7.20232e-32
8.42088e-32
6.49969e-32
2.80685e-32
-2.05969e-32
-7.0802e-32
-1.08702e-31
-1.34329e-31
-1.23891e-31
-8.55649e-32
-2.22355e-32
5.06174e-32
9.32105e-32
1.04238e-31
6.44201e-32
-4.44017e-33
-6.90538e-32
-1.20043e-31
-1.2137e-31
-9.26237e-32
-4.49253e-32
1.1413e-32
3.75177e-32
4.97422e-32
3.36197e-32
-3.26976e-33
-3.22059e-32
-6.80226e-32
-7.61709e-32
-6.29219e-32
-3.87458e-32
8.62907e-33
3.44831e-32
4.53594e-32
2.99866e-32
-1.84786e-32
-5.79795e-32
-9.3853e-32
-9.54066e-32
-6.12186e-32
-1.77257e-32
3.68633e-32
6.15359e-32
5.56123e-32
2.27185e-32
-3.61894e-32
-8.14367e-32
-1.06448e-31
-9.31654e-32
-3.99224e-32
2.22584e-32
7.72454e-32
9.00959e-32
4.93685e-32
-2.44277e-32
-1.0796e-31
-1.53417e-31
-1.35944e-31
-6.46172e-32
3.70696e-32
1.13441e-31
1.29901e-31
8.27488e-32
-1.11132e-32
-9.77078e-32
-1.42423e-31
-1.30996e-31
-7.18251e-32
-5.66645e-33
4.32525e-32
5.85259e-32
4.34252e-32
1.92084e-32
-6.83705e-33
-2.65192e-32
-4.47688e-32
-6.51882e-32
-7.75728e-32
-7.57346e-32
-4.47448e-32
7.67306e-33
6.09301e-32
9.34362e-32
7.43845e-32
1.56254e-32
-6.63227e-32
-1.35856e-31
-1.49395e-31
-1.14297e-31
-2.86994e-32
6.19499e-32
1.15008e-31
1.23862e-31
6.57395e-32
-1.36955e-32
-8.76565e-32
-1.31749e-31
-1.14909e-31
-7.12342e-32
-8.64045e-33
3.78415e-32
4.62675e-32
3.46733e-32
3.90151e-33
-1.30918e-32
-1.07392e-32
1.85559e-33
1.56091e-32
5.55534e-33
-2.50657e-32
-6.67177e-32
-9.76507e-32
-9.63356e-32
-6.17622e-32
-2.48866e-33
5.68826e-32
9.46138e-32
9.9898e-32
6.98818e-32
1.74387e-32
-4.35824e-32
-9.89642e-32
-1.30883e-31
-1.33671e-31
-1.00004e-31
-3.59089e-32
3.77937e-32
1.02537e-31
1.27794e-31
1.05202e-31
4.19684e-32
-4.22514e-32
-1.07115e-31
-1.33637e-31
-1.10172e-31
-4.99568e-32
1.27421e-32
5.60175e-32
5.67643e-32
2.21527e-32
-2.48954e-32
-6.2039e-32
-6.26198e-32
-2.97767e-32
2.09637e-32
6.26168e-32
6.53612e-32
2.52507e-32
-4.5937e-32
-1.12857e-31
-1.39881e-31
-1.09071e-31
-2.89762e-32
6.02779e-32
1.18251e-31
1.10214e-31
4.35742e-32
-4.65278e-32
-1.17444e-31
-1.24497e-31
-7.8274e-32
-9.83019e-34
6.15184e-32
6.77446e-32
3.15811e-32
-3.7503e-32
-8.73225e-32
-8.97107e-32
-5.37034e-32
1.70166e-32
6.62129e-32
7.938e-32
5.0023e-32
-1.76388e-32
-7.39091e-32
-1.10676e-31
-1.03317e-31
-5.65953e-32
-1.60996e-33
5.39457e-32
7.65723e-32
6.76114e-32
3.56132e-32
-1.3407e-32
-5.15171e-32
-7.62804e-32
-8.06295e-32
-6.3623e-32
-3.78129e-32
-3.06795e-33
2.98676e-32
5.15066e-32
5.78245e-32
3.83428e-32
-1.65999e-33
-4.83439e-32
-8.5254e-32
-8.8677e-32
-5.49672e-32
2.82852e-33
5.97354e-32
8.04708e-32
5.16846e-32
-1.64231e-32
-9.1997e-32
-1.29541e-31
-1.03826e-31
-2.15087e-32
8.11463e-32
1.47642e-31
1.37541e-31
5.0825e-32
-7.84478e-32
-1.83355e-31
-2.08476e-31
-1.41647e-31
-5.60777e-33
1.28183e-31
1.9641e-31
1.7114e-31
5.74303e-32
-7.9339e-32
-1.7959e-31
-2.01379e-31
-1.32201e-31
-2.02682e-32
8.85522e-32
1.45708e-31
1.26944e-31
5.68518e-32
-3.55338e-32
-1.05113e-31
-1.23193e-31
-9.25645e-32
-3.02672e-32
2.9378e-32
5.73401e-32
4.4182e-32
4.13172e-33
-3.86661e-32
-5.37083e-32
-3.02913e-32
1.27488e-32
5.34005e-32
5.5545e-32
1.1697e-32
-5.3589e-32
-1.12586e-31
-1.21741e-31
-7.33388e-32
6.75129e-33
8.59215e-32
1.17316e-31
8.85657e-32
2.21019e-32
-5.45008e-32
-9.92185e-32
-9.77236e-32
-6.77115e-32
-2.18061e-32
9.23299e-33
1.8522e-32
2.0035e-32
1.10024e-32
9.57774e-33
8.74493e-33
-1.23831e-33
-1.02276e-32
-2.60993e-32
-3.2482e-32
-2.76943e-32
-2.31606e-32
-1.98867e-32
-3.12364e-32
-4.63357e-32
-4.88451e-32
-2.70322e-32
2.07596e-32
7.07781e-32
9.17946e-32
5.93412e-32
-1.90586e-32
-1.11628e-31
-1.66776e-31
-1.49624e-31
-6.67094e-32
4.8359e-32
1.29314e-31
1.37791e-31
7.11947e-32
-3.8326e-32
-1.23404e-31
-1.49677e-31
-1.0547e-31
-2.15373e-32
4.63487e-32
7.19908e-32
4.14403e-32
-1.4487e-32
-5.66855e-32
-6.73203e-32
-3.76138e-32
4.01361e-34
2.13703e-32
1.3001e-32
-2.53278e-32
-5.98693e-32
-7.31312e-32
-5.40001e-32
-8.7153e-33
2.76413e-32
4.09914e-32
1.66756e-32
-3.37454e-32
-7.53385e-32
-9.36709e-32
-6.66165e-32
-1.02435e-32
4.31762e-32
7.38423e-32
4.91627e-32
-1.29792e-32
-8.80477e-32
-1.45447e-31
-1.43203e-31
-9.33143e-32
-9.11206e-33
6.59981e-32
7.90316e-32
1.55e-32
-1.22091e-31
-3.30149e-31
-3.90233e-31
-3.52617e-31
5.00152e-31
2.40526e-30
5.49189e-30
1.18293e-29
1.39631e-29
1.61917e-29
-1.44746e-30
-4.47736e-29
-9.67287e-29
-2.02906e-28
-1.94134e-28
-1.33931e-28
1.53498e-28
7.97139e-28
1.16192e-27
1.80382e-27
1.04163e-27
-7.76816e-28
-3.05268e-27
-7.55963e-27
-7.23058e-27
-5.94879e-27
1.73003e-27
1.68575e-26
2.26486e-26
3.30289e-26
1.66279e-26
-1.36319e-26
-4.10287e-26
-9.05174e-26
-7.13447e-26
-4.22175e-26
3.15471e-26
1.54601e-25
1.62712e-25
1.91974e-25
5.42867e-26
-1.45625e-25
-2.41588e-25
-4.15736e-25
-2.36549e-25
-3.16691e-26
2.19128e-25
5.89169e-25
4.5513e-25
3.83008e-25
-3.71106e-26
-5.44029e-25
-5.80076e-25
-7.54279e-25
-2.54605e-25
2.23601e-25
5.06821e-25
9.15266e-25
5.06832e-25
2.23617e-25
-2.54591e-25
-7.54274e-25
-5.80081e-25
-5.44041e-25
-3.71244e-26
3.82999e-25
4.55129e-25
5.89174e-25
2.19136e-25
-3.1663e-26
-2.36547e-25
-4.15738e-25
-2.41592e-25
-1.45629e-25
5.42836e-26
1.91972e-25
1.62712e-25
1.54602e-25
3.15479e-26
-4.22173e-26
-7.13448e-26
-9.05175e-26
-4.10291e-26
-1.36322e-26
1.66276e-26
3.30285e-26
2.26483e-26
1.68572e-26
1.72986e-27
-5.94887e-27
-7.23058e-27
-7.55959e-27
-3.05267e-27
-7.76827e-28
1.04156e-27
1.8037e-27
1.16178e-27
7.97006e-28
1.53426e-28
-1.33934e-28
-1.94048e-28
-2.02766e-28
-9.66003e-29
-4.47024e-29
-1.49479e-30
1.6049e-29
1.3775e-29
1.16695e-29
5.44717e-30
2.48428e-30
6.86577e-31
-1.31199e-31
-2.21898e-31
-2.58714e-31
-1.73481e-31
-1.23957e-31
-8.79864e-32
-7.4043e-32
-6.2859e-32
-4.49494e-32
-6.44886e-33
4.53227e-32
8.67932e-32
9.73076e-32
6.24949e-32
-8.24388e-33
-7.93769e-32
-1.23592e-31
-1.14151e-31
-5.75825e-32
1.678e-32
8.34063e-32
1.06511e-31
8.84861e-32
3.71364e-32
-2.68825e-32
-7.18522e-32
-9.16005e-32
-7.22525e-32
-2.49904e-32
3.05484e-32
7.7472e-32
8.89298e-32
6.03839e-32
1.95452e-33
-6.36595e-32
-1.02016e-31
-9.04811e-32
-3.51512e-32
4.55053e-32
1.08451e-31
1.18816e-31
7.77684e-32
-7.8508e-33
-8.66894e-32
-1.22406e-31
-1.04377e-31
-2.78137e-32
5.54976e-32
1.14873e-31
1.23061e-31
6.71261e-32
-1.3301e-32
-9.25428e-32
-1.28913e-31
-1.00636e-31
-2.57917e-32
7.16025e-32
1.42295e-31
1.4952e-31
8.8024e-32
-2.19872e-32
-1.30198e-31
-1.81489e-31
-1.51098e-31
-4.7086e-32
8.35827e-32
1.75819e-31
1.90444e-31
1.18128e-31
-2.56502e-33
-1.13913e-31
-1.67949e-31
-1.43741e-31
-6.40071e-32
3.37986e-32
1.01615e-31
1.19683e-31
8.87839e-32
2.72512e-32
-2.87084e-32
-6.76062e-32
-6.99564e-32
-4.59639e-32
-1.04452e-32
2.82593e-32
4.10419e-32
3.8393e-32
1.37554e-32
-1.61844e-32
-2.56468e-32
-2.42938e-32
5.58144e-33
3.21037e-32
3.91791e-32
2.82397e-32
-1.64652e-32
-5.14419e-32
-6.76246e-32
-5.31015e-32
-9.72745e-34
4.47858e-32
7.70112e-32
7.35645e-32
3.56143e-32
-3.23947e-33
-3.83696e-32
-4.87164e-32
-4.23253e-32
-3.92942e-32
-3.52257e-32
-3.68545e-32
-2.33788e-32
1.85588e-32
7.22773e-32
1.23222e-31
1.26953e-31
6.48888e-32
-4.18423e-32
-1.611e-31
-2.18986e-31
-1.82175e-31
-5.93363e-32
1.11528e-31
2.33958e-31
2.576e-31
1.62596e-31
-2.02768e-32
-1.89753e-31
-2.82931e-31
-2.453e-31
-9.16111e-32
9.21245e-32
2.38443e-31
2.64429e-31
1.66783e-31
2.02185e-33
-1.66111e-31
-2.41921e-31
-2.08061e-31
-8.69087e-32
6.86195e-32
1.69464e-31
1.92223e-31
1.29581e-31
1.87748e-32
-7.55356e-32
-1.33489e-31
-1.29686e-31
-8.52141e-32
-2.95796e-32
2.79993e-32
6.05389e-32
7.81303e-32
7.73532e-32
5.67811e-32
2.91508e-32
-1.20062e-32
-4.77608e-32
-7.3554e-32
-8.26085e-32
-6.88159e-32
-4.24698e-32
-3.04914e-33
3.44215e-32
6.69088e-32
8.23117e-32
7.44372e-32
4.68783e-32
-3.44006e-33
-4.94046e-32
-8.63836e-32
-9.60678e-32
-7.21945e-32
-3.65686e-32
1.47552e-32
5.01618e-32
6.7719e-32
6.99113e-32
4.4161e-32
1.65374e-32
-2.11657e-32
-5.46577e-32
-6.92492e-32
-7.25775e-32
-4.68689e-32
-9.99904e-33
2.90319e-32
6.04411e-32
6.35038e-32
4.75293e-32
1.21296e-32
-2.68126e-32
-5.35847e-32
-6.49114e-32
-5.32311e-32
-2.74069e-32
4.8467e-33
3.24248e-32
4.55407e-32
3.95512e-32
1.91118e-32
-5.89064e-33
-2.51229e-32
-2.55216e-32
-1.71385e-32
-3.54071e-33
6.80094e-34
-1.24975e-32
-2.37416e-32
-3.07998e-32
-1.08454e-32
2.83644e-32
6.1538e-32
7.5498e-32
4.07259e-32
-2.08378e-32
-8.32543e-32
-1.13547e-31
-8.15428e-32
-1.08469e-32
7.37752e-32
1.22035e-31
1.07671e-31
4.32808e-32
-4.63547e-32
-1.05132e-31
-1.1067e-31
-6.04592e-32
1.96182e-32
7.91219e-32
9.68427e-32
5.92978e-32
-6.93786e-33
-6.19397e-32
-8.26645e-32
-5.07242e-32
8.40052e-33
6.37182e-32
8.82244e-32
6.08496e-32
2.67486e-33
-6.16679e-32
-1.01243e-31
-9.03397e-32
-4.10552e-32
3.01905e-32
9.26222e-32
1.14901e-31
9.70097e-32
4.08124e-32
-3.10105e-32
-8.73229e-32
-1.18558e-31
-1.07653e-31
-6.18833e-32
5.5977e-34
6.96163e-32
1.14658e-31
1.26624e-31
9.91297e-32
3.18591e-32
-4.65157e-32
-1.17158e-31
-1.48428e-31
-1.23244e-31
-5.21415e-32
4.62419e-32
1.26829e-31
1.56578e-31
1.22063e-31
3.31582e-32
-6.7054e-32
-1.35913e-31
-1.42185e-31
-8.23322e-32
1.14908e-32
9.55896e-32
1.31066e-31
1.00168e-31
2.39139e-32
-6.11558e-32
-1.14266e-31
-1.05861e-31
-4.90999e-32
3.28552e-32
9.76706e-32
1.09324e-31
7.46463e-32
1.83565e-34
-6.87666e-32
-9.77522e-32
-8.55745e-32
-2.37371e-32
4.08022e-32
8.32363e-32
9.13387e-32
4.8486e-32
-3.09954e-33
-5.1822e-32
-7.46125e-32
-5.54247e-32
-2.26861e-32
2.20534e-32
5.24673e-32
5.77365e-32
4.93204e-32
2.46528e-32
2.41014e-33
-1.08755e-32
-1.82858e-32
-1.63856e-32
-1.4046e-32
-1.59183e-32
-1.47647e-32
-1.46273e-32
-4.74627e-33
1.82098e-32
4.23118e-32
7.17123e-32
8.05759e-32
6.69648e-32
3.22601e-32
-2.53254e-32
-6.84307e-32
-9.36378e-32
-7.81051e-32
-2.3871e-32
4.10915e-32
1.05272e-31
1.29772e-31
1.15589e-31
6.48504e-32
2.33669e-33
-4.54856e-32
-6.47564e-32
-4.21681e-32
-1.01044e-32
4.00894e-32
6.19457e-32
6.40883e-32
5.86145e-32
1.5377e-32
7.5841e-33
-2.32676e-32
-2.78391e-32
-6.27451e-33
)
;

boundaryField
{
    left
    {
        type            calculated;
        value           uniform 0;
    }
    right
    {
        type            calculated;
        value           uniform 0;
    }
    empty
    {
        type            empty;
        value           nonuniform List<scalar> 0();
    }
}


// ************************************************************************* //
