/*--------------------------------*- C++ -*----------------------------------*\
| =========                 |                                                 |
| \\      /  F ield         | OpenFOAM: The Open Source CFD Toolbox           |
|  \\    /   O peration     | Version:  2106                                  |
|   \\  /    A nd           | Website:  www.openfoam.com                      |
|    \\/     M anipulation  |                                                 |
\*---------------------------------------------------------------------------*/
FoamFile
{
    version     2.0;
    format      ascii;
    arch        "LSB;label=32;scalar=64";
    class       volScalarField;
    location    "0.29";
    object      p;
}
// * * * * * * * * * * * * * * * * * * * * * * * * * * * * * * * * * * * * * //

dimensions      [0 2 -2 0 0 0 0];

internalField   nonuniform List<scalar> 
11200
(
150.088740173
147.160138253
146.046287188
145.518955646
145.151625614
144.856846966
144.595202985
144.346664438
144.102146044
143.857078109
143.608763457
143.355447365
143.095897797
142.829179148
142.554524539
142.271260547
141.978761357
141.676420987
141.363640624
141.039832127
140.704371771
140.356610539
139.995890103
139.621542613
139.232882498
138.829208453
138.409804273
137.973939525
137.520870295
137.049839813
136.560079033
136.05080714
135.521231678
134.970548763
134.397943767
133.802592475
133.183660941
132.54030569
131.871674132
131.176904991
130.455128606
129.705467154
128.927034839
128.118937971
127.280274914
126.410135856
125.507602355
124.571746593
123.601630273
122.596303055
121.554800431
120.476140878
119.359322136
118.203316393
117.007064119
115.769466229
114.489374163
113.165577382
111.796787571
110.381618789
108.918562445
107.40595567
105.841941088
104.224418072
102.550976652
100.818811631
99.0246125555
97.1644193639
95.2334278646
93.2257232628
91.1339163627
88.9486474673
86.6577181949
84.2449420957
81.6882334049
78.9559322928
76.0004392748
72.7491789182
69.0484288336
64.285155444
148.295698231
146.937524026
146.14655233
145.646537688
145.255549123
144.931666283
144.647144881
144.382542397
144.127054308
143.874532171
143.621148644
143.364390103
143.102519471
142.834260257
142.558612011
142.2747399
141.981906522
141.679429059
141.366649079
141.042904739
140.707545834
140.359896907
139.999314245
139.625129709
139.236647305
138.833160006
138.413948768
137.978281334
137.525412499
137.054584508
136.565027322
136.05595857
135.526583925
134.976103158
134.403703592
133.808561024
133.18984124
132.546700716
131.878286884
131.183738538
130.462186166
129.71275216
128.934551041
128.12668955
127.28826662
126.41837318
125.51609174
124.580495691
123.610648261
122.605601021
121.564391843
120.486042167
119.369553417
118.213902357
117.018035143
115.780859752
114.501236386
113.177965377
111.80977191
110.395286948
108.933023396
107.421346006
105.858431062
104.242215613
102.570332015
100.840039598
99.0481228617
97.1907443743
95.2632646961
93.2599990667
91.1738785949
88.9959469626
86.7146565009
84.3148713835
81.7761964395
79.0701233587
76.1558539763
72.9755542946
69.4264338875
65.3136316604
147.300508006
146.646307508
146.093951571
145.656333519
145.284709418
144.962607415
144.673507328
144.403273255
144.142810162
143.886329146
143.629945191
143.370976563
143.107511188
142.83812207
142.561688118
142.277280695
141.984090168
141.681377951
141.36844576
141.044616744
140.709228844
140.361642474
140.001113643
139.626988691
139.238575527
138.835164564
138.416034458
137.980451867
137.527671281
137.056935177
136.56747439
136.0585088
135.529247493
134.97888306
134.406597732
133.81156969
133.192965863
132.549943248
131.881650126
131.187226127
130.465802595
129.716502854
128.938442519
128.130729635
127.292464707
126.422740577
125.520642086
124.585245477
123.61561747
122.610813922
121.569877984
120.491837561
119.375701987
118.220457703
117.025062692
115.788439384
114.50946568
113.186963749
111.819685747
110.406295834
108.945347016
107.435252438
105.874248168
104.260365402
102.591366848
100.864658809
99.0771995852
97.2253906199
95.304917793
93.3105425578
91.2358153182
89.072673301
86.811021688
84.437944799
81.936721829
79.2854927499
76.4562842235
73.4174814664
70.1331074758
66.5801402655
146.750746859
146.387365439
145.98746719
145.61847636
145.280859131
144.972756028
144.687391939
144.416687179
144.154314356
143.89564647
143.637265463
143.376639763
143.111869512
142.841487418
142.564317386
142.279376886
141.985809601
141.682839339
141.36973898
141.045808616
140.710357326
140.362694956
140.002180304
139.628090225
139.239714003
138.836343924
138.417258397
137.981722848
137.528990645
137.058303249
136.568890327
136.059969963
135.530749507
134.980427273
134.408193111
133.813221499
133.194680335
132.551727372
131.883509912
131.189168042
130.467833908
129.718631845
128.940678912
128.133085016
127.294952997
126.425378597
125.523450227
124.588248506
123.618845504
122.61430357
121.573673685
120.495993313
119.380283495
118.225545012
117.030753494
115.794853228
114.516749203
113.195296844
111.829289247
110.41744087
108.958370276
107.450579873
105.892408604
104.281997379
102.617244718
100.895751937
99.1147437501
97.2709681206
95.3605720189
93.3789455918
91.3205318737
89.1786014965
86.9449229549
84.6094545592
82.16010755
79.5827838829
76.8627385028
73.9902646954
70.9689615735
67.8360090729
146.416698978
146.184903418
145.883490789
145.572513289
145.267673149
144.975648971
144.696672514
144.427545519
144.164584366
143.904498901
143.644528692
143.3824363
143.116429181
142.845058244
142.567126779
142.281617816
141.987638721
141.684380289
141.371087216
141.047036911
140.71152451
140.363853707
140.003328165
139.629237294
139.240883947
138.837551792
138.418514007
137.983033604
137.530362608
137.059741922
136.5704013
136.061559505
135.532424386
134.982192604
134.41005025
133.815173634
133.196728227
132.553871967
131.885755483
131.191519289
130.470298028
129.721218361
128.943399791
128.135955007
127.297990115
126.428604716
125.52689185
124.591937733
123.62282118
122.618612767
121.57837402
120.501155047
119.385992273
118.231905257
117.037892448
115.802925441
114.525941591
113.205837298
111.84145498
110.431575085
108.974895087
107.470002965
105.915361762
104.309276861
102.649854646
100.934953233
99.1621251401
97.3285484631
95.4309437118
93.4654767169
91.4276507791
89.3122013767
87.1130202063
84.8231887602
82.43528643
79.942304133
77.3400456234
74.6329527915
71.8423860742
69.0190432302
146.213306565
146.037404444
145.796209512
145.528883394
145.251695924
144.975056979
144.703366505
144.436863974
144.174097833
143.913087994
143.65179954
143.388365406
143.121160114
142.848792823
142.570070629
142.283955831
141.989526389
141.685942916
141.372422687
141.048219922
140.712611237
140.364884769
140.004331127
139.630240582
139.241902561
138.83859631
138.419592359
137.984151673
137.531524777
137.060951322
136.571660074
136.062868958
135.53378526
134.983605768
134.411517214
133.816696926
133.198313436
132.555526495
131.887487386
131.193340489
130.472221312
129.723257233
128.945569837
128.138274392
127.300480416
126.431292058
125.529807996
124.595121327
123.626319357
122.62248307
121.582685786
120.505992406
119.3914574
118.238122333
117.045012713
115.811134333
114.535469092
113.21696439
111.854529613
110.447015582
108.99320626
107.491809083
105.941440619
104.34058482
102.687574642
100.980560272
99.217470885
97.395972872
95.5134263661
93.5668456351
91.5528745869
89.4678016772
87.3076607512
85.0685107413
82.7470668743
80.3419776811
77.8563110168
75.302220977
72.7066557856
70.1167146746
146.090189861
145.9345822
145.728280312
145.491718065
145.236242736
144.972963137
144.708349832
144.44484116
144.182707888
143.921122174
143.658749983
143.394114804
143.125786857
142.852457589
142.57295483
142.286231002
141.991341184
141.687419552
141.373658098
141.049288925
140.713570223
140.365775575
140.005186155
139.631084423
139.242751518
138.839461714
138.42048269
137.985073227
137.532482333
137.061948804
136.572701016
136.063956869
135.534923898
134.984799637
134.412772021
133.81801928
133.199710369
132.557005855
131.889057936
131.195010203
130.473998063
129.725152719
128.947600167
128.140459983
127.302846459
126.43386904
125.53263279
124.598238608
123.629783266
122.626359166
121.587053745
120.510949273
119.397121429
118.244637605
117.052554587
115.819915191
114.545743814
113.22904551
111.868794968
110.463931835
109.013355061
107.515904701
105.970351606
104.375383271
102.729587967
101.031436506
99.2792646006
97.4712585056
95.6054485845
93.6797204669
91.6918599399
89.6396610842
87.5211447034
85.3349783359
83.0812309266
80.7626603483
78.386815789
75.9692960612
73.5369769085
71.1292167175
146.016110265
145.866100154
145.679344577
145.463239289
145.223533394
144.970712414
144.712075673
144.451337953
144.18997182
143.928050871
143.664834242
143.399198496
143.129903117
142.855726858
142.575526202
142.28825131
141.992940691
141.688707022
141.374720762
141.050194748
140.714371016
140.366510229
140.005883445
139.631765106
139.243431481
138.840151871
138.421191191
137.985806179
137.533244487
137.062744111
136.573533032
136.064829083
135.535839982
134.985763504
134.413787748
133.819091428
133.20084433
132.558207492
131.890334085
131.196370599
130.475458619
129.726731484
128.949315903
128.142334948
127.304907626
126.436149244
125.535171971
124.601085291
123.632996362
122.630010346
121.591230671
120.515758338
119.40269174
118.251125985
117.060151861
115.828854461
114.556311194
113.241588166
111.883737669
110.481791226
109.034757584
107.54161715
106.001315482
104.412755757
102.774793624
101.0862337
99.3458305173
97.5522982215
95.7043354299
93.8006772544
91.8401914242
89.8220481553
87.7460018576
85.6128649892
83.4252512413
81.1886944365
78.9132312644
76.6154672194
74.3200827836
72.0590873686
145.973833965
145.824386332
145.647970929
145.444233055
145.214700888
144.968993173
144.714633992
144.455996536
144.195290786
143.933197715
143.669401417
143.403044019
143.133033983
142.858222658
142.577493303
142.289797728
141.994163904
141.6896893
141.375528576
141.050880174
140.714973937
140.367060641
140.006403634
139.632272327
139.24393556
138.840662612
138.421715301
137.986348629
137.533809275
137.063334679
136.574152555
136.065480732
135.536527139
134.986489939
134.414557796
133.819910241
133.20171816
132.559144364
131.891344411
131.197466912
130.476652206
129.728037253
128.950753799
128.143929309
127.306687857
126.438150957
125.537438353
124.603668775
123.63596065
122.633432739
121.595204712
120.520397681
119.408134574
118.257540333
117.067741883
115.837867879
114.567048171
113.254413969
111.899096676
110.500227387
109.056934717
107.56834498
106.033582338
104.451770031
102.822034987
101.143516863
99.4153850679
97.6368683735
95.807303813
93.9262185776
91.9934579274
90.0093888062
87.975206539
85.8934027359
83.7684240299
81.6075662235
79.4220801474
77.2283781888
75.0485057028
72.9086432567
145.954557572
145.804679778
145.632717058
145.434782018
145.210221292
144.968102991
144.715968775
144.458460908
144.198134943
143.935974999
143.671885802
143.405151598
143.134762786
142.859611883
142.578598226
142.290675626
141.994867036
141.69026208
141.37600707
141.05129275
140.715342399
140.367401458
140.006729032
139.632591232
139.244255548
138.840988549
138.42205111
137.98669752
137.534174035
137.063717976
136.574557045
136.065909269
135.53698295
134.986976798
134.415080219
133.820473702
133.202329303
132.559811158
131.892075984
131.198273716
130.477549158
129.729041649
128.951886211
128.145214618
127.308156291
126.439839247
125.539391104
124.605940139
123.638616357
122.636552608
121.598885706
120.524757543
119.41331625
118.263717372
117.0751251
115.846713608
114.577668431
113.26718733
111.914483003
110.518786357
109.079345628
107.59543419
106.066355616
104.491452055
102.870117609
101.201818031
99.4861206177
97.7227387803
95.9115977756
94.0529351211
92.1474430777
90.1964909777
88.2024192687
86.1689817339
84.1018862706
82.0094781925
79.9034818232
77.7996522646
75.7176809788
73.679494041
145.954560186
145.804695869
145.632744095
145.434818281
145.210266009
144.968155333
144.716027815
144.458525817
144.198205022
143.936049674
143.671964608
143.405234179
143.134848875
142.859701296
142.578690853
142.29077142
141.994966001
141.690364275
141.376112604
141.051401783
140.715455155
140.367518237
140.006850229
139.63271736
139.244387299
138.841126652
138.422196487
137.986851308
137.534337626
137.063892921
136.574745353
136.066113398
135.537205874
134.987222125
134.415352321
133.820777863
133.202671903
132.560199941
131.892520518
131.198785941
130.478143095
129.729734319
128.952698378
128.146171533
127.309288618
126.44118422
125.540993932
124.607855708
123.6409113
122.639307807
121.602199331
120.528748748
119.418129656
118.269528495
117.0821469
115.855204362
114.587941256
113.27962182
111.929540201
110.537027211
109.101448818
107.622223099
106.098829011
104.530820663
102.917848012
101.259683578
99.5562600429
97.8077269666
96.0145301836
94.1775202007
92.2981292306
90.3786533754
88.4222055782
86.4334104399
84.4187840621
82.3872282109
80.3505296909
78.3237069287
76.3246638081
74.3724949934
145.973841864
145.824434982
145.648052643
145.444342594
145.214835907
144.969150968
144.714811752
144.456191796
144.195501464
143.933422093
143.669638116
143.403291972
143.133292402
142.858490998
142.577771235
142.290085114
141.99446077
141.689995825
141.375845086
141.051207151
140.715312051
140.367410784
140.006766954
139.632650377
139.244330319
138.841076264
138.42215056
137.98680881
137.534298413
137.063857654
136.574715329
136.06609055
135.5371928
134.987222153
134.41536961
133.820817553
133.202740301
132.560304752
131.892671116
131.198993714
130.478421879
129.730100964
128.953173389
128.146779825
127.310060452
126.442156345
125.542210972
124.609371832
123.642792258
122.641633388
121.605066342
120.532274642
119.422456896
118.274829861
117.088631925
115.86312713
114.5976099
113.291410162
111.943899797
110.554501479
109.122703343
107.648058016
106.130209279
104.568908916
102.964042185
101.31566527
99.6240666107
97.8898284245
96.1138380594
94.2974719962
92.4427039049
90.5522228878
88.6300064126
86.6813103507
84.713126121
82.7346073285
80.7574278889
78.7959930917
76.8670210573
74.9879536996
146.016123636
145.866182485
145.679482619
145.463423945
145.223760552
144.970977389
144.712373695
144.451664881
144.190324183
143.928425814
143.665229486
143.399612286
143.130334154
142.856174253
142.575989425
142.288730142
141.993435191
141.689217499
141.375247764
141.050739088
140.714933832
140.367093008
140.00648801
139.632394097
139.244087775
138.840839233
138.421914121
137.986570123
137.534056068
137.063611376
136.574465751
136.065839109
135.536941702
134.986974383
134.415129009
133.820588938
133.202529636
132.560119364
131.89251996
131.198887705
130.478374321
129.730128038
128.953294784
128.147019485
127.310447485
126.442726116
125.543006426
124.610445109
123.644206635
122.643465644
121.607409609
120.535241864
119.426185
118.279484799
117.094414753
115.870281316
114.606430138
113.302253254
111.957197178
110.570774783
109.142576379
107.672289926
106.159715283
104.604792429
103.007635904
101.368558003
99.6881117723
97.9671592233
96.2070221901
94.4095136778
92.5770880076
90.7130065701
88.8215780643
86.9084043334
84.980704082
83.0476494799
81.12068165
79.2137472977
77.3429795553
75.5252940862
146.090209075
145.934700357
145.72847775
145.491981235
145.236565435
144.973338488
144.708770982
144.445302247
144.183204045
143.921649431
143.659305192
143.394695545
143.126391353
142.853084626
142.573603684
142.286901378
141.992033162
141.688133551
141.374394859
141.050049539
140.714356223
140.366589044
140.006029738
139.631961535
139.243666184
138.84041904
138.421488849
137.986135677
137.533610134
137.063152994
136.573995029
136.06535705
135.536450117
134.986475879
134.414627022
133.820087833
133.202034851
132.559637635
131.892059583
131.198458862
130.477989449
129.729802284
128.953046572
128.146871215
127.310426386
126.442865275
125.54334604
124.611033986
123.645104015
122.644743396
121.609154897
120.53756036
119.429204777
118.283361006
117.09933527
115.876473527
114.614169022
113.311871261
111.969096542
110.585439902
109.160591921
107.694356815
106.186673341
104.637641279
103.047552178
101.416946746
99.7466590166
98.0378716939
96.292196015
94.5117739433
92.6994036463
90.8586848732
88.9941988753
87.1117196476
85.2184762376
83.3234522963
81.4377272434
79.574870534
77.750893196
75.9832055119
146.213332282
146.037562121
145.796471535
145.529230847
145.25212003
144.975548358
144.703916077
144.437464118
144.174742308
143.913771759
143.652518625
143.389116783
143.121941567
142.849602844
142.57090832
142.284820814
141.990418722
141.686863021
141.373371308
141.049198111
140.713620323
140.36592668
140.005410335
139.63136294
139.243072665
138.839819916
138.420876878
137.985506169
137.532960301
137.06248147
136.573301548
136.064642254
135.535715454
134.985723576
134.413860118
133.819310226
133.201251373
132.55885423
131.891283557
131.197699216
130.477257283
129.729111243
128.952413361
128.146316205
127.309974352
126.442546312
125.54319668
124.611098566
123.645436328
122.645408676
121.610232213
120.539145507
119.431413756
118.286334214
117.103242521
115.881520171
114.62060327
113.319992719
111.979266354
110.598093521
109.176252045
107.71364892
106.210345574
104.666588457
103.082844131
101.459840988
99.7986221788
98.1006093065
96.367677063
94.6022383831
92.8073481208
90.9868233988
89.1453876327
87.2888313359
85.4242153227
83.5601328907
81.7070980712
79.878191249
78.0894435126
76.3595293921
146.416731879
146.185105472
145.883823879
145.572952022
145.268205489
144.976262616
144.697356005
144.428289475
144.165381241
143.905342678
143.64541468
143.383360961
143.117389974
142.846053498
142.568155591
142.28267994
141.988734447
141.685510277
141.372252298
141.048238136
140.712763425
140.365131458
140.00464679
139.630610166
139.242315008
138.839046786
138.420081134
137.98468314
137.532107116
137.061596575
136.572384399
136.063693125
135.534735364
134.984714277
134.412824132
133.818250957
133.200173231
132.557762722
131.890185392
131.196602424
130.476171449
129.728047991
128.951386901
128.145343936
127.309077576
126.441751067
125.542534721
124.610608525
123.645165126
122.645413295
121.61058179
120.539923875
119.432722511
118.288296386
117.106007006
115.885266884
114.625548472
113.326396842
111.987442946
110.608419352
109.189179277
107.729719148
106.230205177
104.691004994
103.112725023
101.496254793
99.8428176513
98.1540299626
96.4319704579
94.6792568373
92.8991306734
91.0955495359
89.2732873937
87.4380410923
85.5965617171
83.7568430626
81.9285060858
80.1237047514
78.3579545587
76.6511106816
146.750786965
146.387615542
145.987873861
145.619006759
145.281497271
144.973486203
144.688200206
144.417562452
144.155247875
143.896631351
143.638296411
143.377712849
143.112982003
142.842637668
142.565504788
142.280601867
141.987073633
141.684144878
141.371088985
141.047206938
140.711813066
140.364223793
140.003755066
139.629714207
139.241401031
138.838105303
138.419105759
137.983669769
137.531053194
137.060500601
136.571245672
136.062511601
135.533511499
134.98344894
134.411518624
133.8169072
133.198794065
132.556351989
131.888748103
131.195145243
130.474703046
129.726578613
128.949928938
128.143912409
127.307690655
126.440430729
125.541307581
124.609506868
123.644228173
122.644688696
121.61012696
120.539808208
119.433029887
118.289128151
117.10748548
115.887539762
114.628795527
113.330834988
111.993332887
110.616074012
109.198973423
107.742100231
106.245705582
104.710255507
103.136469114
101.525363052
99.8783021569
98.1970562903
96.4838630332
94.741494543
92.9733265082
91.1834053638
89.3765071371
87.5581831623
85.7347974341
83.913566689
82.1027928697
80.3128564493
78.5569720773
76.8537911266
147.300560138
146.646619824
146.094441845
145.656960916
145.28545427
144.963450734
144.674432953
144.404268635
144.143865478
143.887436696
143.631099003
143.372172082
143.108745027
142.83939182
142.562992235
142.278618544
141.98546237
141.682787251
141.36989728
141.046117023
140.710778378
140.363211092
140.002736213
139.628673541
139.24032764
138.836991524
138.417946466
137.982461685
137.529794532
137.059190562
136.569884183
136.061099212
135.532049335
134.981938683
134.40996246
133.815307453
133.197152149
132.554670625
131.887030913
131.193396361
130.472927225
129.724782763
128.948121875
128.142105072
127.305896556
126.438666487
125.539593525
124.607867752
123.642693978
122.643295546
121.608919266
120.538839958
119.432366495
118.288848775
117.107685778
115.888334877
114.630322679
113.333259661
111.99685417
110.620930682
109.205451163
107.750540033
106.256513294
104.723912272
103.153542383
101.54651735
99.9043087943
98.228800423
96.5223453747
94.7878294075
93.0287259857
91.2491449513
89.4538590602
87.6482971402
85.8384761737
84.0307837502
82.2318799773
80.4493230524
78.6902255196
76.9632783085
148.295797778
146.937981851
146.147235173
145.647392727
145.256553247
144.932798716
144.648388617
144.383884364
144.128484297
143.876042137
143.622732223
143.366042204
143.104235865
142.836037165
142.560445691
142.276626264
141.983840611
141.681404216
141.368659854
141.044958891
140.709641854
140.362059261
140.001559171
139.627458222
139.239064747
138.835675135
138.416572302
137.981024426
137.528290568
137.057617797
136.568241138
136.059384736
135.530262553
134.980079003
134.408029666
133.813302256
133.195078163
132.552530323
131.884826898
131.191132157
130.470607475
129.722412652
128.945707615
128.139654273
127.303418547
126.436172675
125.537097842
124.605387207
123.640249354
122.640912211
121.606627683
120.536676904
119.430376413
118.287085373
117.106213954
115.887233349
114.629687568
113.33320552
111.997518336
110.622477791
109.208078067
107.754481239
106.262046869
104.731366165
103.163301102
101.559028844
99.9200909431
98.2484451485
96.5465180609
94.8172839274
93.0642906052
91.2917062762
89.5043356978
87.7075962639
85.907384886
84.1095680406
82.3196751069
80.542468278
78.7727497745
76.9810024172
150.088906313
147.160808553
146.047280667
145.520210111
145.153110844
144.85853834
144.597081918
144.348717371
144.104363075
143.859452191
143.611289879
143.358123444
143.098722762
142.83215417
142.557652835
142.274547431
141.98221415
141.680048367
141.367447536
141.043804193
140.708512994
140.360934146
140.000398765
139.626241607
139.237780539
138.834316367
138.415135276
137.979512285
137.526705011
137.055959055
136.566509479
136.057580586
135.528386408
134.9781314
134.40601114
133.811213051
133.192917335
132.550297994
131.882523818
131.188759416
130.468166549
129.71990564
128.94313734
128.137024358
127.300733549
126.433438261
125.534321025
124.60257657
123.637415374
122.638067672
121.603788148
120.533861295
119.427607658
118.284391181
117.103627695
115.884794964
114.627444494
113.331215384
111.995850445
110.621215121
109.207319733
107.754345463
106.26267446
104.732924407
103.16598798
101.563077465
99.9257743038
98.2560858973
96.5565088883
94.8300488746
93.0803110169
91.3115323179
89.5286018448
87.7370383817
85.942888168
84.1526489069
82.3727421845
80.6079538178
78.8378291624
76.9378906436
56.8909618777
53.3388737855
50.9474462413
48.9900758013
47.3181339516
45.8614565045
44.5760585527
43.4322247362
42.4082671586
41.4874195191
40.6562536627
39.903742298
39.2206638175
38.5992027094
38.0326672766
37.5152813051
37.0420256202
36.6085143658
36.2108966699
35.8457765491
35.5101476782
35.2013390051
34.9169693197
34.654909155
34.4132485628
34.190269562
33.9844229513
33.7943081648
33.6186559321
33.4563134266
33.3062311555
33.1674517082
33.0390998999
32.9203739099
32.8105373373
32.7089121482
32.6148719627
32.5278348414
32.4472558235
32.3726181247
32.3034504292
32.2394531007
32.1805405624
32.1261630688
32.0758631373
32.0292731684
31.9861246979
31.9461672086
31.9091630501
31.8748924324
31.8431656562
31.8137934484
31.7865777221
31.7613481873
31.7379539734
31.7162514245
31.6960930693
31.6773503666
31.6599061794
31.6436517315
31.6284872333
31.6143216375
31.6010704481
31.5886551472
31.577003146
31.5660475381
31.5557266358
31.5459836301
31.5367662545
31.5280265055
31.519720286
31.5118071082
31.5042498255
31.4970143149
31.4900692309
31.4833860134
31.4769388461
31.4707040733
31.4646599793
31.4587867315
31.453066244
31.4474820045
31.442018942
31.4366633406
31.4314026926
31.426225558
31.4211215298
31.4160811192
31.4110956885
31.4061573278
31.4012588194
31.3963935796
31.3915555321
31.3867390169
31.3819387607
31.3771500321
31.3723683497
31.3675884453
31.3628040049
31.3580116976
31.3532069572
31.3483840676
31.3435417503
31.3386815295
31.3338145726
31.3289417791
31.3240505058
31.3191380569
31.3142371195
31.3092969344
31.3043062952
31.29926153
31.2941594015
31.2889965764
31.2837694805
31.2784742937
31.2731059407
31.2676542377
31.2620950216
31.2563860376
31.2505103958
31.2447605709
31.2392068112
31.2338334712
31.228240045
31.2224674367
31.2165961183
31.210677943
31.2047300069
31.19877776
31.1928415754
31.1869555046
31.1811568442
31.1754831914
31.1699746579
31.1646679904
31.15959246
31.1547695924
31.1501795017
31.1457849312
31.1417545754
31.1376059331
31.1333425635
31.1283047704
31.1208821173
31.1070100494
31.0769808704
31.0095896597
30.8641058049
30.5704434026
30.0237420446
29.0914363817
27.6408388355
25.5787229639
22.8783254216
19.5951014965
15.8473872489
11.6038108389
6.58922118212
1.56584336551
60.0723169607
56.019511698
53.3075478457
51.1552531765
49.3534201364
47.803645494
46.447713514
45.2483790662
44.1794518961
43.2212783977
42.358498003
41.5787448106
40.871845849
40.2292950966
39.6438912678
39.1094759992
38.620739842
38.1730730826
37.7624497924
37.3853354604
37.0386119771
36.7195170428
36.4255937644
36.1546488582
35.9047178246
35.6740354035
35.4610108256
35.2642067113
35.0823208824
34.9141707729
34.7586799843
34.6148667461
34.4818338114
34.3587596895
34.2448909558
34.1395361466
34.0420601978
33.9518799443
33.868462199
33.7913214773
33.7200089188
33.6540652375
33.5929465975
33.5363694127
33.4840367388
33.4356385654
33.3908781791
33.3494762251
33.3111740438
33.2757303328
33.2429178191
33.212528721
33.1843751906
33.1582812817
33.1340784427
33.1116122875
33.0907515057
33.0713664976
33.0533372038
33.0365545349
33.0209156997
33.0063206669
32.9926797499
32.9799108175
32.9679381713
32.9566920306
32.9461080981
32.9361271552
32.9266947635
32.9177608754
32.9092795236
32.9012084645
32.8935090163
32.8861458679
32.8790871884
32.8723035344
32.8657667298
32.8594517746
32.8533359815
32.8473986136
32.8416207918
32.8359852262
32.8304761846
32.8250793106
32.8197815929
32.8145712003
32.809437334
32.8043696593
32.7993588898
32.7943965807
32.7894750357
32.7845871318
32.7797261938
32.7748858995
32.7700604415
32.7652447329
32.760433228
32.7556212477
32.7508147906
32.7460048982
32.7411888815
32.7363720994
32.7315440568
32.7266953251
32.7218067494
32.7168717017
32.7118967595
32.7068805865
32.7018170272
32.6967123864
32.691569081
32.6863844116
32.6811553548
32.6758786577
32.6705514516
32.6651712653
32.6597362227
32.654246096
32.6487044409
32.643120406
32.637493985
32.631812759
32.6260598693
32.6199916543
32.6139448831
32.6080251881
32.6020760212
32.5961059266
32.5901343424
32.5841910173
32.5782972504
32.5724944759
32.5668264232
32.561339617
32.5560849102
32.5511114907
32.5464644317
32.5421856034
32.5382335237
32.5346928621
32.5314760594
32.5284029095
32.5251740299
32.5209516413
32.5136069886
32.4980894234
32.4627189729
32.3830239028
32.2133052409
31.8771667874
31.2636730993
30.2373082629
28.6685064951
26.4738661558
23.6384974196
20.2223945371
16.3418684673
11.9806786673
6.87745227433
1.69907413732
62.2797709564
58.3463281367
55.4792098943
53.1953590661
51.2935260029
49.6672368469
48.2514550999
47.0041534349
45.8958928533
44.9047915594
44.0139320371
43.2098403813
42.481542863
41.8199466277
41.2174150902
40.6674632733
40.1645336752
39.703825956
39.2811660176
38.8929020694
38.5358220868
38.2070873777
37.9041777648
37.6248466714
37.3670840261
37.1290848506
36.9092234515
36.7060313037
36.5181780534
36.3444556484
36.183764381
36.0351010647
35.8975486447
35.7702672309
35.6524863074
35.5434979158
35.4426504385
35.3493431039
35.2630211585
35.1831713461
35.1093234597
35.0410387727
34.9777674548
34.9191366373
34.8649347674
34.8148184643
34.7684690018
34.725597515
34.6859379347
34.6492441723
34.6152885291
34.5838593478
34.5547590069
34.5278044909
34.5028232717
34.4796488504
34.4581411978
34.4381664263
34.4195989159
34.4023190715
34.3862178435
34.3711997564
34.3571737044
34.344054673
34.3317642141
34.3202299362
34.30938505
34.2991679659
34.2895220518
34.2803952081
34.2717395953
34.2635113045
34.2556700392
34.24817871
34.2410028328
34.2341111683
34.2274764027
34.2210728421
34.2148768867
34.2088669659
34.203023435
34.1973283387
34.1917653289
34.1863194868
34.180977148
34.1757255979
34.1705532803
34.1654504534
34.1604080338
34.1554175032
34.1504711013
34.1455617544
34.140683059
34.135829144
34.1309942898
34.1261726427
34.1213599343
34.116551674
34.111733019
34.1069047741
34.1020606071
34.0971870147
34.0922850769
34.0873481348
34.0823793292
34.0773921286
34.0723804104
34.0673378407
34.0622599651
34.0571414017
34.0519789869
34.0467697739
34.041510846
34.0361999224
34.0308346746
34.0254129343
34.0199327233
34.014393704
34.0087960193
34.0031433093
33.997434222
33.9916632944
33.9858364933
33.9799776501
33.9741210903
33.968154455
33.9620822375
33.955964796
33.9499099941
33.9439581924
33.9380901689
33.9323547981
33.9267994373
33.921478228
33.9164511415
33.9117791879
33.9075322376
33.9037868709
33.9004377415
33.8975656969
33.8951561461
33.8929681653
33.8905854632
33.8869191069
33.8792662458
33.86153209
33.820032367
33.7270200476
33.5320272409
33.1528268279
32.4732341874
31.3557297937
29.6743304934
27.3547478118
24.3922224372
20.8494678985
16.8394571301
12.3603280018
7.1654510744
1.83014893245
64.0839678818
60.3592697405
57.4553325667
55.1002520399
53.1303128565
51.446175996
49.982672727
48.695908646
47.5546185492
46.5354558956
45.6203867134
44.7951012784
44.0480031737
43.3695350765
42.7517123952
42.1877879941