/*--------------------------------*- C++ -*----------------------------------*\
| =========                 |                                                 |
| \\      /  F ield         | OpenFOAM: The Open Source CFD Toolbox           |
|  \\    /   O peration     | Version:  2106                                  |
|   \\  /    A nd           | Website:  www.openfoam.com                      |
|    \\/     M anipulation  |                                                 |
\*---------------------------------------------------------------------------*/
FoamFile
{
    version     2.0;
    format      ascii;
    arch        "LSB;label=32;scalar=64";
    class       volVectorField;
    location    "0.29";
    object      U;
}
// * * * * * * * * * * * * * * * * * * * * * * * * * * * * * * * * * * * * * //

dimensions      [0 1 -1 0 0 0 0];

internalField   nonuniform List<vector> 
11200
(
(0.662462401763 0.15056944559 0)
(0.558948662337 0.103243390891 0)
(0.383850714298 0.0513512266664 0)
(0.283747562104 0.0248708577057 0)
(0.232075227502 0.0124170475962 0)
(0.201908535013 0.0066228191142 0)
(0.183197872157 0.00380291662055 0)
(0.171276418502 0.0023158722158 0)
(0.163510226526 0.00146450868031 0)
(0.158388679668 0.000944894529427 0)
(0.155006530321 0.000615179005854 0)
(0.152786564186 0.000402235924672 0)
(0.151346402512 0.000264234353366 0)
(0.150428153585 0.000175252312082 0)
(0.149856537134 0.00011836287805 0)
(0.149512323406 8.21622898184e-05 0)
(0.14931475028 5.88683957792e-05 0)
(0.149209375578 4.33184332724e-05 0)
(0.149159503255 3.29374238184e-05 0)
(0.149142249331 2.81885810037e-05 0)
(0.149144389418 2.76864830097e-05 0)
(0.149156648312 2.98919357154e-05 0)
(0.1491722524 3.30522566449e-05 0)
(0.149187781838 3.59678439558e-05 0)
(0.149201972205 3.86033293679e-05 0)
(0.149214223629 4.10423622342e-05 0)
(0.149224368492 4.33195895478e-05 0)
(0.149232513673 4.54661594708e-05 0)
(0.149238895817 4.75213441483e-05 0)
(0.149243796887 4.95322075685e-05 0)
(0.149247501902 5.15607933948e-05 0)
(0.149250278256 5.36981001395e-05 0)
(0.149252322994 5.60266870131e-05 0)
(0.149253806272 5.84080606304e-05 0)
(0.149254860624 6.07691032497e-05 0)
(0.149255572533 6.3090218557e-05 0)
(0.149256038833 6.53816698061e-05 0)
(0.149256343133 6.76563661502e-05 0)
(0.149256539086 6.99259140338e-05 0)
(0.149256655891 7.21964444364e-05 0)
(0.149256714522 7.4469034825e-05 0)
(0.149256732248 7.67446515931e-05 0)
(0.149256721255 7.90229963023e-05 0)
(0.149256690377 8.13029123498e-05 0)
(0.149256645919 8.35826586977e-05 0)
(0.149256592549 8.58599122363e-05 0)
(0.14925653431 8.81319188677e-05 0)
(0.149256475269 9.03956157723e-05 0)
(0.149256419904 9.26478580198e-05 0)
(0.149256373334 9.48856406369e-05 0)
(0.149256342406 9.71058635835e-05 0)
(0.149256336803 9.93056417595e-05 0)
(0.149256369742 0.000101482004654 0)
(0.149256459447 0.000103631557161 0)
(0.149256631548 0.000105749989709 0)
(0.149256922312 0.000107831677194 0)
(0.149257382523 0.000109869640221 0)
(0.149258086821 0.000111853991342 0)
(0.149259144496 0.000113772079135 0)
(0.14926071352 0.000115599167235 0)
(0.149263039662 0.00011727969944 0)
(0.149266530977 0.000118729292991 0)
(0.149271657656 0.000119987537033 0)
(0.149279065789 0.000121246401611 0)
(0.149289787075 0.000122967232755 0)
(0.149305342028 0.000125338024116 0)
(0.149328116129 0.00012811855741 0)
(0.149361804683 0.000131081418236 0)
(0.149412000617 0.000134010757899 0)
(0.14948693505 0.000136792429374 0)
(0.149598547644 0.000140701361958 0)
(0.149769669196 0.000151558269442 0)
(0.150038072433 0.000172291888225 0)
(0.1504669287 0.000202557027743 0)
(0.151192055138 0.000232498403318 0)
(0.152491147583 0.000191695464459 0)
(0.155020465105 -0.00021684001475 0)
(0.162374638817 -0.00211066977056 0)
(0.187706763276 -0.0107913679594 0)
(0.20437849664 -0.0496743782475 0)
(0.96540825145 0.289214710875 0)
(0.961962846321 0.252656043481 0)
(0.823574364838 0.159021444936 0)
(0.69813932837 0.0959957345149 0)
(0.610225409704 0.0582481173718 0)
(0.548971423594 0.0362148563352 0)
(0.506588806169 0.0231612882055 0)
(0.477567171055 0.015137518365 0)
(0.45774537816 0.0100177582145 0)
(0.444228331179 0.00665814425715 0)
(0.435053152964 0.00441555937099 0)
(0.428872956435 0.00290686894238 0)
(0.424754023967 0.00189106146512 0)
(0.422046457783 0.00121004830903 0)
(0.420297604508 0.00075716631454 0)
(0.419192979445 0.000459258747444 0)
(0.418515358509 0.00026585771428 0)
(0.418116195947 0.000142402658036 0)
(0.417895576864 6.61125663626e-05 0)
(0.417786510671 2.30947395941e-05 0)
(0.417745080869 1.40961669456e-06 0)
(0.417741788629 -1.01609662212e-05 0)
(0.417756372303 -1.37124402021e-05 0)
(0.417778317216 -1.32659462122e-05 0)
(0.417802598178 -1.08338024811e-05 0)
(0.417825955968 -7.49085036732e-06 0)
(0.41784669729 -3.87463665436e-06 0)
(0.417864223459 -3.55238974487e-07 0)
(0.417878538354 2.86590237402e-06 0)
(0.417889957393 5.68491538054e-06 0)
(0.417898952392 8.03746451404e-06 0)
(0.417906016609 9.8390969039e-06 0)
(0.417911351955 1.10078060161e-05 0)
(0.417915192429 1.18602463955e-05 0)
(0.417917915726 1.26822192788e-05 0)
(0.417919796774 1.34391184927e-05 0)
(0.417921077858 1.41130942121e-05 0)
(0.417921950254 1.47283746798e-05 0)
(0.417922540156 1.53139296594e-05 0)
(0.417922919165 1.58833361744e-05 0)
(0.417923140018 1.64369642859e-05 0)
(0.417923246124 1.69798891475e-05 0)
(0.417923268192 1.75157744524e-05 0)
(0.417923228744 1.80479367519e-05 0)
(0.417923144029 1.85795095891e-05 0)
(0.417923026187 1.9112869188e-05 0)
(0.417922885673 1.96499949039e-05 0)
(0.417922732974 2.01927696976e-05 0)
(0.41792257978 2.07432775141e-05 0)
(0.417922439562 2.13035191609e-05 0)
(0.41792233021 2.18736012569e-05 0)
(0.417922276636 2.24536892105e-05 0)
(0.417922312542 2.30437646487e-05 0)
(0.417922484147 2.36433968104e-05 0)
(0.417922856331 2.42517183551e-05 0)
(0.417923521644 2.48677972333e-05 0)
(0.417924610884 2.54897861031e-05 0)
(0.41792631652 2.61055451299e-05 0)
(0.417928915839 2.66976246798e-05 0)
(0.417932797728 2.72353404398e-05 0)
(0.417938561761 2.76705594793e-05 0)
(0.417947305152 2.795073906e-05 0)
(0.417960517987 2.82359649159e-05 0)
(0.417980335512 2.7789544621e-05 0)
(0.418009525932 2.51981872866e-05 0)
(0.418051695234 1.93816266161e-05 0)
(0.418113024752 9.53462585268e-06 0)
(0.418203632048 -5.87400775678e-06 0)
(0.418339118549 -2.93678481534e-05 0)
(0.418544378975 -6.46285203647e-05 0)
(0.41886131159 -0.000115851464119 0)
(0.419359528287 -0.000188012510429 0)
(0.420152519733 -0.000307805008527 0)
(0.421443984237 -0.000532820643688 0)
(0.423625667471 -0.000999921926357 0)
(0.427416473507 -0.00209091042501 0)
(0.434239012346 -0.00485765180054 0)
(0.448269304717 -0.0122575956486 0)
(0.474657310351 -0.0342521913173 0)
(0.478197652362 -0.0988028533983 0)
(1.02222096223 0.238416188493 0)
(1.08213751659 0.295926653828 0)
(1.03447720056 0.239503067406 0)
(0.954615370932 0.174290165373 0)
(0.879992004802 0.121345469283 0)
(0.81861437197 0.0830993849809 0)
(0.771410773983 0.0567316680025 0)
(0.736634301113 0.0387409694531 0)
(0.71162433016 0.0264327879756 0)
(0.693916505646 0.0179731056826 0)
(0.681541283308 0.0121424489166 0)
(0.672999978234 0.00812490913623 0)
(0.667180500393 0.00536632191983 0)
(0.663271517444 0.00348444556253 0)
(0.660688333024 0.00221256225745 0)
(0.659013995248 0.00136338248856 0)
(0.657954300595 0.000805244335685 0)
(0.657303993637 0.000445916991479 0)
(0.656921560748 0.000221068689998 0)
(0.656709980743 8.55812311429e-05 0)
(0.656603102098 8.35763658964e-06 0)
(0.656561538533 -3.37197249253e-05 0)
(0.656557623035 -5.685400251e-05 0)
(0.656571083627 -6.68731017189e-05 0)
(0.656592598166 -6.84805805905e-05 0)
(0.656616403132 -6.55592478497e-05 0)
(0.656639191283 -6.05484230149e-05 0)
(0.656659355812 -5.48587653157e-05 0)
(0.656676311509 -4.92747290214e-05 0)
(0.656690036249 -4.42032777167e-05 0)
(0.656700776457 -3.98393167721e-05 0)
(0.656708916448 -3.6301363718e-05 0)
(0.656715152148 -3.36952167363e-05 0)
(0.656720173755 -3.18565145914e-05 0)
(0.656724024535 -3.08101222443e-05 0)
(0.656726719589 -3.03031565624e-05 0)
(0.656728570846 -3.02476823054e-05 0)
(0.656729857717 -3.05585219173e-05 0)
(0.656730747527 -3.10859545637e-05 0)
(0.656731330149 -3.17475739308e-05 0)
(0.656731679921 -3.25138961796e-05 0)
(0.656731862175 -3.33498463726e-05 0)
(0.656731922087 -3.42309116347e-05 0)
(0.656731893663 -3.51378660523e-05 0)
(0.656731801538 -3.60553090754e-05 0)
(0.656731664197 -3.69724916749e-05 0)
(0.656731497722 -3.78818434835e-05 0)
(0.656731318086 -3.87778342248e-05 0)
(0.656731142392 -3.9655741984e-05 0)
(0.656730988689 -4.05100715197e-05 0)
(0.656730881364 -4.13372574429e-05 0)
(0.656730856061 -4.21332528784e-05 0)
(0.656730961599 -4.28963250091e-05 0)
(0.65673126587 -4.36295408553e-05 0)
(0.656731865307 -4.43460006796e-05 0)
(0.656732897018 -4.50764979366e-05 0)
(0.656734548177 -4.587510746e-05 0)
(0.656737094303 -4.68372460717e-05 0)
(0.656740943619 -4.80887015308e-05 0)
(0.656746693557 -4.98461160525e-05 0)
(0.656755271362 -5.26145327118e-05 0)
(0.656768324362 -5.74148013336e-05 0)
(0.656787182193 -6.5035940966e-05 0)
(0.656813282766 -7.6351253317e-05 0)
(0.656850451449 -9.30485741577e-05 0)
(0.656905396209 -0.000117530155704 0)
(0.656987502603 -0.000152996503798 0)
(0.65711056113 -0.000204734316706 0)
(0.65729638718 -0.000281265405514 0)
(0.657580377258 -0.000396469201587 0)
(0.65802067008 -0.000574703679174 0)
(0.658706483819 -0.000863248751719 0)
(0.659784913326 -0.00135221075847 0)
(0.661513579737 -0.00221476550869 0)
(0.664334813526 -0.00381357477686 0)
(0.668944681491 -0.006947703336 0)
(0.676369641326 -0.0133564289934 0)
(0.688618549923 -0.0268523584943 0)
(0.705252061695 -0.0563399329975 0)
(0.700518311779 -0.113131323127 0)
(1.02251475124 0.170807152839 0)
(1.10138974375 0.27649647889 0)
(1.11752423475 0.266664799399 0)
(1.09214656655 0.2199016991 0)
(1.05187810409 0.168168847724 0)
(1.01020815886 0.123567396718 0)
(0.973494611031 0.0888375215704 0)
(0.943864461615 0.0630063715809 0)
(0.921142690371 0.0442232041597 0)
(0.904283948667 0.030742392848 0)
(0.892074730084 0.0211562942412 0)
(0.883404357541 0.0143954686555 0)
(0.877352503405 0.00966794832347 0)
(0.873197526598 0.00639383729387 0)
(0.870392736059 0.00415116488152 0)
(0.868533833465 0.00263449084108 0)
(0.867327422634 0.00162401709987 0)
(0.866564005377 0.000962675449262 0)
(0.866096233673 0.000539121626266 0)
(0.865821977073 0.000275152729254 0)
(0.86567111911 0.000117067568202 0)
(0.86559485451 2.87915868278e-05 0)
(0.86556378242 -1.93254312119e-05 0)
(0.865560960373 -4.12616718799e-05 0)
(0.86557229067 -4.76657251808e-05 0)
(0.865589283773 -4.552509997e-05 0)
(0.865607580713 -3.91556082049e-05 0)
(0.865624907566 -3.11447307063e-05 0)
(0.865640180524 -2.29635865117e-05 0)
(0.865653032571 -1.537979353e-05 0)
(0.865663495258 -8.72205257769e-06 0)
(0.865671772066 -3.04303727362e-06 0)
(0.8656781153 1.73560310598e-06 0)
(0.865682732555 5.46683163724e-06 0)
(0.865686041827 8.03376392204e-06 0)
(0.865688430259 9.79072907737e-06 0)
(0.865690052488 1.11443470398e-05 0)
(0.865691204811 1.22892634687e-05 0)
(0.865692062901 1.32581714101e-05 0)
(0.865692645251 1.41447473165e-05 0)
(0.865693000022 1.4940058967e-05 0)
(0.865693191699 1.56667548093e-05 0)
(0.865693259136 1.6340443306e-05 0)
(0.865693233787 1.69775381439e-05 0)
(0.865693137877 1.75926769606e-05 0)
(0.865692987589 1.81960982079e-05 0)
(0.865692798011 1.87954539935e-05 0)
(0.865692585728 1.93973438766e-05 0)
(0.865692371337 2.00102007464e-05 0)
(0.865692177704 2.06417287874e-05 0)
(0.865692035049 2.12778302687e-05 0)
(0.865691985034 2.19060872485e-05 0)
(0.865692081073 2.25099872987e-05 0)
(0.865692393182 2.30634262021e-05 0)
(0.865693014641 2.35291236192e-05 0)
(0.865694077702 2.38688306236e-05 0)
(0.86569576495 2.40501247357e-05 0)
(0.865698364393 2.39525331919e-05 0)
(0.865702282436 2.34254938157e-05 0)
(0.865707939654 2.20619198988e-05 0)
(0.86571578153 1.9287162854e-05 0)
(0.865727435344 1.44218272815e-05 0)
(0.865745500356 5.63004086639e-06 0)
(0.865772933768 -8.69768046628e-06 0)
(0.865813611045 -3.05573454736e-05 0)
(0.86587344677 -6.3896993156e-05 0)
(0.865961774078 -0.000115591564076 0)
(0.866093100997 -0.000196403808069 0)
(0.866289973571 -0.000323596267049 0)
(0.866587209241 -0.000525650007219 0)
(0.867038414593 -0.000851524304509 0)
(0.867728666447 -0.00138817849093 0)
(0.868794340443 -0.0022844311294 0)
(0.870448747797 -0.00381496181855 0)
(0.873010888851 -0.0065042079552 0)
(0.87687985986 -0.0113619726361 0)
(0.882378490885 -0.0202581557601 0)
(0.889690440009 -0.0364651401864 0)
(0.896371066367 -0.0655182253805 0)
(0.886549121817 -0.110096428379 0)
(1.01287874735 0.11896102335 0)
(1.08820669319 0.231806936982 0)
(1.13741364273 0.253106764715 0)
(1.15409082544 0.228992753762 0)
(1.14994205318 0.188368359216 0)
(1.13538458485 0.14657984442 0)
(1.11758886384 0.110150966126 0)
(1.10059490344 0.0808162224891 0)
(1.08612445828 0.0582265766905 0)
(1.07459079733 0.0413189851968 0)
(1.06579132541 0.028916020339 0)
(1.05928783365 0.0199601000137 0)
(1.05459959458 0.0135815600592 0)
(1.05129058259 0.00909744304431 0)
(1.04899965095 0.00598615378226 0)
(1.04744319394 0.00385696621394 0)
(1.04640630663 0.00242159771693 0)
(1.04573037739 0.00147014987843 0)
(1.04530080789 0.000851701664746 0)
(1.04503629651 0.000459016122962 0)
(1.04487991976 0.000216756759634 0)
(1.04479228941 7.30177446865e-05 0)
(1.04474841043 -5.50403174976e-06 0)
(1.04473149755 -4.40081184337e-05 0)
(1.04472923363 -5.93851209953e-05 0)
(1.04473470473 -6.17186713908e-05 0)
(1.04474364011 -5.7245012043e-05 0)
(1.04475351185 -4.98030629594e-05 0)
(1.04476294034 -4.16439148076e-05 0)
(1.04477125543 -3.39885350704e-05 0)
(1.04477820668 -2.74232330937e-05 0)
(1.04478378146 -2.21514529438e-05 0)
(1.04478812585 -1.81281959187e-05 0)
(1.04479145083 -1.51395510019e-05 0)
(1.04479401115 -1.28082041694e-05 0)
(1.04479610029 -1.10118591882e-05 0)
(1.04479782949 -9.52286642915e-06 0)
(1.04479914413 -8.23321129785e-06 0)
(1.04480011437 -7.21417931206e-06 0)
(1.04480079117 -6.54531206107e-06 0)
(1.04480119618 -6.16579961792e-06 0)
(1.04480141644 -5.9571163132e-06 0)
(1.04480149748 -5.86863436091e-06 0)
(1.04480147773 -5.85083475688e-06 0)
(1.04480138199 -5.86349381183e-06 0)
(1.04480122799 -5.88684449794e-06 0)
(1.04480103351 -5.91131170393e-06 0)
(1.04480081999 -5.93310021251e-06 0)
(1.04480061103 -5.956786283e-06 0)
(1.0448004129 -5.99210256101e-06 0)
(1.04480024269 -6.02288014324e-06 0)
(1.04480014539 -6.04747085394e-06 0)
(1.04480017494 -6.07237910035e-06 0)
(1.04480040526 -6.11235657179e-06 0)
(1.04480095539 -6.20407851454e-06 0)
(1.04480201345 -6.45524261317e-06 0)
(1.0448037658 -7.13160384507e-06 0)
(1.04480649199 -8.51066197786e-06 0)
(1.04481050933 -1.10803989461e-05 0)
(1.04481628452 -1.49031855671e-05 0)
(1.04482483959 -1.98492133734e-05 0)
(1.04483732428 -2.60587636091e-05 0)
(1.04485500764 -3.58298035306e-05 0)
(1.04488019755 -5.21406629123e-05 0)
(1.0449163626 -7.92122790453e-05 0)
(1.04496864979 -0.000123292015625 0)
(1.04504465832 -0.000194151256904 0)
(1.04515573091 -0.000307369969611 0)
(1.04531900715 -0.000488116899737 0)
(1.04556034361 -0.000777425093814 0)
(1.04591841654 -0.00124263331323 0)
(1.04645108143 -0.00199541585781 0)
(1.04724246014 -0.00322637999275 0)
(1.04840552501 -0.00526643397103 0)
(1.05006764806 -0.0086926625864 0)
(1.05228559795 -0.0144992631195 0)
(1.05481554674 -0.0242941277534 0)
(1.05686807577 -0.0403887846982 0)
(1.05573732406 -0.0656254163714 0)
(1.04212469337 -0.0995116530118 0)
(1.00447483079 0.0814039971103 0)
(1.06917235793 0.181288538731 0)
(1.13080565746 0.216950418543 0)
(1.1737499611 0.210789155351 0)
(1.19865259581 0.183690076705 0)
(1.2101998107 0.149751683157 0)
(1.21350247477 0.116779143857 0)
(1.21251714417 0.0882206774976 0)
(1.20973087295 0.0650481503528 0)
(1.2065110724 0.0470209081336 0)
(1.20351899553 0.0334068076136 0)
(1.2010113007 0.0233557315013 0)
(1.19903428645 0.0160720127176 0)
(1.19753860106 0.0108795125551 0)
(1.19644112248 0.00723418689475 0)
(1.19565537962 0.00471351737707 0)
(1.19510466966 0.00299762810147 0)
(1.19472624252 0.0018491600179 0)
(1.19447124736 0.00109495975571 0)
(1.19430292286 0.000610610906119 0)
(1.19419426936 0.000307986349388 0)
(1.1941259705 0.000125768539299 0)
(1.19408490651 2.22234444244e-05 0)
(1.1940616335 -3.24514443851e-05 0)
(1.19404931904 -5.72699362951e-05 0)
(1.19404380628 -6.45955142735e-05 0)
(1.19404229452 -6.23735139572e-05 0)
(1.19404296533 -5.55188325849e-05 0)
(1.19404470311 -4.69418463645e-05 0)
(1.19404684963 -3.82560134285e-05 0)
(1.19404903249 -3.0262356342e-05 0)
(1.19405105964 -2.32658142125e-05 0)
(1.19405286199 -1.7289959205e-05 0)
(1.19405443386 -1.22612634947e-05 0)
(1.19405579142 -8.07324725356e-06 0)
(1.19405695385 -4.6718716448e-06 0)
(1.19405789353 -2.06093511279e-06 0)
(1.19405855716 -1.71596967052e-07 0)
(1.19405890426 1.14584711574e-06 0)
(1.19405901053 2.00193317939e-06 0)
(1.19405905722 2.68038942261e-06 0)
(1.19405908078 3.2832588691e-06 0)
(1.1940590551 3.81041447313e-06 0)
(1.19405899681 4.27088254604e-06 0)
(1.19405890135 4.67647114322e-06 0)
(1.19405875957 5.04391086668e-06 0)
(1.19405857408 5.3851317626e-06 0)
(1.19405835141 5.70290483374e-06 0)
(1.19405810333 5.98768665549e-06 0)
(1.19405787197 6.22677669654e-06 0)
(1.19405770157 6.44332348086e-06 0)
(1.1940576219 6.629967977e-06 0)
(1.19405768213 6.7601828333e-06 0)
(1.19405794123 6.79329607793e-06 0)
(1.19405843722 6.6703901085e-06 0)
(1.19405914512 6.30235936435e-06 0)
(1.19406014647 5.53120597279e-06 0)
(1.19406159989 3.9893116605e-06 0)
(1.19406415784 1.24606654524e-06 0)
(1.19406885566 -2.97956008286e-06 0)
(1.19407625315 -9.4619147246e-06 0)
(1.19408627472 -1.95928531286e-05 0)
(1.19409966985 -3.53800647193e-05 0)
(1.19411842799 -5.97384726252e-05 0)
(1.19414467638 -9.72496931299e-05 0)
(1.19418123254 -0.000155229040486 0)
(1.19423208273 -0.00024532389361 0)
(1.19430285484 -0.000386015633858 0)
(1.19440142558 -0.000606768502625 0)
(1.19453856227 -0.000954931637587 0)
(1.19472830268 -0.00150704910905 0)
(1.19498741174 -0.00238744707986 0)
(1.19533069026 -0.00379944283321 0)
(1.19575538522 -0.00607613658002 0)
(1.19620115602 -0.00975667086199 0)
(1.19644824646 -0.0156853861598 0)
(1.19590976056 -0.0250740955173 0)
(1.19343091557 -0.0393799875198 0)
(1.18667586605 -0.0598484697033 0)
(1.17012425151 -0.0851728513789 0)
(0.998962321682 0.0544316245921 0)
(1.05310955282 0.133401607162 0)
(1.11628265232 0.170777557753 0)
(1.17301267615 0.175143871536 0)
(1.21791240577 0.159583605856 0)
(1.25049850892 0.134951019659 0)
(1.27288482795 0.108411656387 0)
(1.28776712421 0.0838849713386 0)
(1.2974525692 0.0630565718023 0)
(1.30366062602 0.0462999207624 0)
(1.30759220561 0.0333205141417 0)
(1.3100535501 0.0235495232912 0)
(1.31157346085 0.0163599069744 0)
(1.31249475049 0.0111713142793 0)
(1.31303843053 0.00749150573429 0)
(1.31334650926 0.00492448478802 0)
(1.31350991038 0.00316295390801 0)
(1.31358652759 0.00197475029787 0)
(1.31361289133 0.00118819507555 0)
(1.31361172939 0.00067862729296 0)
(1.31359687956 0.000357006411676 0)
(1.31357654645 0.000160752175144 0)
(1.31355554039 4.64675829828e-05 0)
(1.31353623347 -1.58706779714e-05 0)
(1.31351956436 -4.60589056239e-05 0)
(1.31350586482 -5.70686567949e-05 0)
(1.31349494995 -5.73231174601e-05 0)
(1.31348648264 -5.20844136238e-05 0)
(1.31348007469 -4.45219089802e-05 0)
(1.3134753409 -3.64600269111e-05 0)
(1.31347193024 -2.88718099541e-05 0)
(1.31346953963 -2.22107171735e-05 0)
(1.31346790951 -1.66282110721e-05 0)
(1.31346681158 -1.21317633773e-05 0)
(1.31346608035 -8.65557755262e-06 0)
(1.31346561841 -6.09808180403e-06 0)
(1.31346532453 -4.32206108328e-06 0)
(1.31346510934 -3.1200519282e-06 0)
(1.31346497023 -2.2625703708e-06 0)
(1.31346499286 -1.5454492173e-06 0)
(1.3134651395 -9.69325619286e-07 0)
(1.31346523214 -5.55988851413e-07 0)
(1.31346521988 -1.96157785405e-07 0)
(1.31346513471 1.39830282973e-07 0)
(1.31346499802 4.50081363554e-07 0)
(1.31346482219 7.4318038633e-07 0)
(1.31346461065 1.03105273521e-06 0)
(1.31346436597 1.32445868162e-06 0)
(1.31346409904 1.63449158598e-06 0)
(1.31346384349 1.96141786943e-06 0)
(1.31346362113 2.25577637957e-06 0)
(1.31346343952 2.47992459023e-06 0)
(1.31346332934 2.58976100065e-06 0)
(1.31346334334 2.52139033953e-06 0)
(1.31346356839 2.18824845741e-06 0)
(1.31346412335 1.50007999525e-06 0)
(1.31346498736 4.07500391474e-07 0)
(1.31346623587 -1.27861457003e-06 0)
(1.31346829296 -3.76743552015e-06 0)
(1.31347138703 -7.7862265418e-06 0)
(1.31347571268 -1.46254338264e-05 0)
(1.3134815028 -2.58646415544e-05 0)
(1.31348902958 -4.30925887063e-05 0)
(1.31349877794 -6.94788317663e-05 0)
(1.31351106475 -0.000110050932119 0)
(1.31352596898 -0.000172553341753 0)
(1.31354310641 -0.000269069463392 0)
(1.31356116263 -0.000418552781418 0)
(1.31357693903 -0.000650820099599 0)
(1.3135835164 -0.00101310318576 0)
(1.31356683282 -0.00158043131703 0)
(1.31349944131 -0.00247187071744 0)
(1.31332708659 -0.00387472765525 0)
(1.31294216356 -0.00608148551577 0)
(1.31213462932 -0.00953684181175 0)
(1.31049904904 -0.0148826959886 0)
(1.30728192131 -0.0229479261611 0)
(1.3012733173 -0.0345739164486 0)
(1.29060480201 -0.0501996021264 0)
(1.27180298079 -0.0686005013837 0)
(0.995736070195 0.0346338587694 0)
(1.04179512889 0.0905689202587 0)
(1.10222835931 0.121549564103 0)
(1.16491407648 0.12960583325 0)
(1.22202561125 0.122009267682 0)
(1.26951885603 0.106019937722 0)
(1.30680216119 0.0870975554164 0)
(1.33499526463 0.0686366805452 0)
(1.35574467352 0.0523698385028 0)
(1.37069605449 0.0389256173531 0)
(1.38128263007 0.0282980726475 0)
(1.38866253953 0.0201712762463 0)
(1.39373018326 0.0141175093003 0)
(1.39715644459 0.00970533473357 0)
(1.39943417332 0.00655059383358 0)
(1.40091948233 0.00433445307688 0)
(1.40186601578 0.00280414318275 0)
(1.40245202356 0.00176574124643 0)
(1.40280110857 0.00107419316815 0)
(1.40299779301 0.000623233038704 0)
(1.40309900211 0.00033640728394 0)
(1.40314244358 0.000159621339051 0)
(1.40315269254 5.51626210739e-05 0)
(1.40314519236 -2.99939428012e-06 0)
(1.40312942205 -3.21235011926e-05 0)
(1.40311100953 -4.38906917297e-05 0)
(1.40309296187 -4.5760606163e-05 0)
(1.40307680363 -4.24183936483e-05 0)
(1.40306313634 -3.67275177412e-05 0)
(1.4030520337 -3.03647457917e-05 0)
(1.40304329393 -2.42447248682e-05 0)
(1.40303659168 -1.88145521264e-05 0)
(1.40303156564 -1.424267965e-05 0)
(1.40302786583 -1.05312166068e-05 0)
(1.40302519428 -7.57948658923e-06 0)
(1.40302331874 -5.2626474339e-06 0)
(1.40302206267 -3.45787790661e-06 0)
(1.40302127542 -2.02152742811e-06 0)
(1.40302079138 -8.48933746703e-07 0)
(1.4030204157 8.30215089123e-08 0)
(1.40302008076 7.92453144701e-07 0)
(1.40301986863 1.28234003453e-06 0)
(1.40301976658 1.65451667462e-06 0)
(1.40301968234 1.97445099546e-06 0)
(1.40301958128 2.27958091717e-06 0)
(1.40301945645 2.58802853544e-06 0)
(1.40301930644 2.9091153619e-06 0)
(1.40301913341 3.24751887302e-06 0)
(1.40301893844 3.60410307614e-06 0)
(1.40301871437 3.96852972725e-06 0)
(1.40301847328 4.29957857257e-06 0)
(1.40301824891 4.56594101961e-06 0)
(1.40301806939 4.72944520375e-06 0)
(1.40301796014 4.7325661232e-06 0)
(1.40301793915 4.4872816181e-06 0)
(1.4030180112 3.85135496765e-06 0)
(1.40301817476 2.62028075909e-06 0)
(1.40301845032 6.73075492897e-07 0)
(1.40301905192 -2.37885375885e-06 0)
(1.4030201371 -7.33596931849e-06 0)
(1.40302158866 -1.49878546454e-05 0)
(1.40302307458 -2.66529465548e-05 0)
(1.40302411252 -4.41793874116e-05 0)
(1.40302395599 -7.05476278793e-05 0)
(1.40302111296 -0.000110344011747 0)
(1.40301283859 -0.000170594002324 0)
(1.4029943232 -0.000262173335148 0)
(1.40295737792 -0.000401946037059 0)
(1.40288804797 -0.000615965941507 0)
(1.40276258996 -0.000944852750038 0)
(1.40254095926 -0.00145196686858 0)
(1.40215677797 -0.00223573418613 0)
(1.40149841529 -0.00344525623443 0)
(1.40037741655 -0.00530438375553 0)
(1.39848033378 -0.00813613074392 0)
(1.39529374247 -0.0123756416455 0)
(1.39000410912 -0.01853443859 0)
(1.38146254135 -0.0270511304753 0)
(1.36817174796 -0.0380087474253 0)
(1.3477376217 -0.0505166584187 0)
(0.994011527385 0.0192358046511 0)
(1.03484762085 0.0523338387513 0)
(1.09199259852 0.0723631258447 0)
(1.15662415881 0.0791292304598 0)
(1.22032111007 0.0761045448903 0)
(1.27701938731 0.0673339701451 0)
(1.32424411164 0.0561509023284 0)
(1.36181564667 0.0447990099497 0)
(1.39068520662 0.0345303766632 0)
(1.41226063652 0.0258814315885 0)
(1.42801809553 0.0189465230974 0)
(1.43929870175 0.013584981085 0)
(1.44722792196 0.0095565331152 0)
(1.45270396467 0.00660011405201 0)
(1.45641877688 0.00447418869847 0)
(1.4588912501 0.00297351176923 0)
(1.46050210271 0.00193276689572 0)
(1.46152548767 0.00122369197982 0)
(1.46215549175 0.000749548776561 0)
(1.46252730497 0.000439016073578 0)
(1.46273357068 0.000240519612138 0)
(1.46283670215 0.000117410587183 0)
(1.46287799351 4.40482872239e-05 0)
(1.46288422147 2.69000299913e-06 0)
(1.46287208609 -1.84449962968e-05 0)
(1.46285172404 -2.743865486e-05 0)
(1.46282916234 -2.94383472464e-05 0)
(1.46280761386 -2.76882122907e-05 0)
(1.4627886064 -2.41860976157e-05 0)
(1.46277268433 -2.01132165257e-05 0)
(1.4627598389 -1.61182631532e-05 0)
(1.46274977576 -1.25239889863e-05 0)
(1.46274208423 -9.45700495644e-06 0)
(1.46273633205 -6.92818486618e-06 0)
(1.46273212051 -4.88374498524e-06 0)
(1.46272910725 -3.25433828351e-06 0)
(1.46272700391 -1.97692649672e-06 0)
(1.46272555355 -1.0104460538e-06 0)
(1.46272454439 -3.0988060011e-07 0)
(1.46272391184 2.12708120224e-07 0)
(1.46272354272 6.94872612639e-07 0)
(1.46272328758 1.17180724841e-06 0)
(1.46272311396 1.59741666003e-06 0)
(1.46272298246 1.97851091239e-06 0)
(1.46272286362 2.33625175747e-06 0)
(1.46272273838 2.68407953471e-06 0)
(1.46272259335 3.02744685439e-06 0)
(1.46272242003 3.36441516481e-06 0)
(1.46272221407 3.68557581061e-06 0)
(1.46272197299 3.97876858843e-06 0)
(1.46272170007 4.23619770492e-06 0)
(1.46272140312 4.42633771049e-06 0)
(1.46272108917 4.49833331759e-06 0)
(1.46272076781 4.38234626109e-06 0)
(1.46272045418 3.98745075781e-06 0)
(1.46272016907 3.20306704358e-06 0)
(1.4627198961 1.907892063e-06 0)
(1.46271953805 -3.59508839462e-09 0)
(1.4627189383 -2.79904164264e-06 0)
(1.46271796751 -7.31764856115e-06 0)
(1.4627163655 -1.43482607447e-05 0)
(1.46271345239 -2.49865916171e-05 0)
(1.46270810435 -4.07739825066e-05 0)
(1.4626985104 -6.40879074388e-05 0)
(1.46268160614 -9.85251845661e-05 0)
(1.4626522426 -0.000149469865025 0)
(1.46260190842 -0.000225110288526 0)
(1.46251684378 -0.000337897389838 0)
(1.46237455753 -0.00050642369376 0)
(1.4621381576 -0.000759115906578 0)
(1.46174767135 -0.00113978424833 0)
(1.46110846124 -0.00171601308413 0)
(1.46006927168 -0.00258355958796 0)
(1.45838894312 -0.0038820709135 0)
(1.45569329472 -0.00580406825849 0)
(1.45141650884 -0.00859288575806 0)
(1.44473754534 -0.0125090261202 0)
(1.43458631206 -0.0177334594416 0)
(1.41970176589 -0.0242151726576 0)
(1.39823561555 -0.0314090895629 0)
(0.993269663353 0.00617014825551 0)
(1.03158098483 0.0171020438159 0)
(1.08672178952 0.0239906465229 0)
(1.15174550326 0.0265606638916 0)
(1.21823530915 0.0258180571542 0)
(1.2792576754 0.0230488846368 0)
(1.33140128138 0.0193656301528 0)
(1.37377589689 0.0155468568035 0)
(1.40691043145 0.0120449291646 0)
(1.43203301956 0.00906639873042 0)
(1.45060202171 0.00666059372928 0)
(1.46402971766 0.00479009039407 0)
(1.47355000725 0.0033784271992 0)
(1.4801754677 0.00233873703133 0)
(1.48470210924 0.00158891291136 0)
(1.48773601407 0.00105828796622 0)
(1.48972714053 0.000689461876556 0)
(1.49100255964 0.000437637563752 0)
(1.49179562905 0.000268884975783 0)
(1.49226998926 0.000158110448704 0)
(1.49253847105 8.71241458406e-05 0)
(1.49267753756 4.29745528947e-05 0)
(1.49273806118 1.65847774395e-05 0)
(1.49275322528 1.66439016576e-06 0)
(1.49274397858 -6.06816509734e-06 0)
(1.49272318076 -9.41317270484e-06 0)
(1.49269852697 -1.02190822805e-05 0)
(1.49267424522 -9.65554007615e-06 0)
(1.49265243293 -8.44136316268e-06 0)
(1.49263393152 -6.99452377069e-06 0)
(1.49261886376 -5.55514548139e-06 0)
(1.49260696747 -4.24335063427e-06 0)
(1.49259781301 -3.106580479e-06 0)
(1.49259092481 -2.15102049601e-06 0)
(1.49258584884 -1.36049076242e-06 0)
(1.49258218488 -7.13196285007e-07 0)
(1.49257959714 -1.87721763109e-07 0)
(1.49257781569 2.3788036589e-07 0)
(1.49257663466 6.09828735665e-07 0)
(1.49257587641 9.79652230528e-07 0)
(1.49257538734 1.28558681995e-06 0)
(1.49257507555 1.57110992856e-06 0)
(1.4925748834 1.85362648737e-06 0)
(1.49257475822 2.14339496896e-06 0)
(1.49257466082 2.44761526403e-06 0)
(1.49257456491 2.76908954405e-06 0)
(1.49257445201 3.10721265939e-06 0)
(1.4925743089 3.4579572639e-06 0)
(1.49257412563 3.81287663218e-06 0)
(1.49257389373 4.15797952122e-06 0)
(1.4925736076 4.47344947081e-06 0)
(1.49257326344 4.7271360657e-06 0)
(1.49257285492 4.87431764066e-06 0)
(1.49257237055 4.85415185034e-06 0)
(1.49257178953 4.58300637432e-06 0)
(1.49257108368 3.94485578281e-06 0)
(1.49257023989 2.78874590046e-06 0)
(1.49256912648 1.00844503621e-06 0)
(1.49256731852 -1.61490094359e-06 0)
(1.49256451013 -5.68177203085e-06 0)
(1.4925603169 -1.17482614925e-05 0)
(1.49255371811 -2.05807468501e-05 0)
(1.49254309577 -3.32621196618e-05 0)
(1.492525903 -5.13414898855e-05 0)
(1.49249802635 -7.70118061252e-05 0)
(1.49245275086 -0.000113282095397 0)
(1.4923792054 -0.000164543615349 0)
(1.49226033406 -0.000237248081634 0)
(1.49206872901 -0.000339863585978 0)
(1.49175968185 -0.000484978367257 0)
(1.49126094947 -0.000692963866682 0)
(1.49046379364 -0.000997237006544 0)
(1.48919856767 -0.00143013381016 0)
(1.48719917108 -0.00203928373209 0)
(1.48406686931 -0.00288609110479 0)
(1.47922132679 -0.00403807600378 0)
(1.47185488554 -0.00554958880563 0)
(1.46095277882 -0.00742227541915 0)
(1.44536589141 -0.00956231988726 0)
(1.42348184838 -0.0117214857991 0)
(0.993270461141 -0.00616840445602 0)
(1.03158096736 -0.0171003788467 0)
(1.0867217231 -0.0239897645245 0)
(1.1517455408 -0.0265602496527 0)
(1.21823538684 -0.025817995667 0)
(1.27925777721 -0.0230491124884 0)