/*--------------------------------*- C++ -*----------------------------------*\
| =========                 |                                                 |
| \\      /  F ield         | OpenFOAM: The Open Source CFD Toolbox           |
|  \\    /   O peration     | Version:  2106                                  |
|   \\  /    A nd           | Website:  www.openfoam.com                      |
|    \\/     M anipulation  |                                                 |
\*---------------------------------------------------------------------------*/
FoamFile
{
    version     2.0;
    format      ascii;
    arch        "LSB;label=32;scalar=64";
    class       surfaceScalarField;
    location    "0.22";
    object      phi;
}
// * * * * * * * * * * * * * * * * * * * * * * * * * * * * * * * * * * * * * //

dimensions      [0 3 -1 0 0 0 0];

oriented        oriented;

internalField   nonuniform List<scalar> 
18840
(
3.37543043864e-05
1.62456956163e-05
2.25359626029e-05
1.12183419371e-05
1.63023781066e-05
6.23358440125e-06
1.28098250298e-05
3.49255299656e-06
1.08065801031e-05
2.0032451451e-06
9.60476901858e-06
1.20181083106e-06
8.85167829563e-06
7.5309062205e-07
8.36503053924e-06
4.86647885555e-07
8.04518594446e-06
3.1984452819e-07
7.83374176874e-06
2.11444125306e-07
7.69428195094e-06
1.39459911328e-07
7.60308041614e-06
9.12015827695e-08
7.54426566263e-06
5.88148239375e-08
7.50707755324e-06
3.71882587462e-08
7.48418974258e-06
2.28879639494e-08
7.47062424915e-06
1.35655655199e-08
7.46302168208e-06
7.60256205815e-09
7.45913885262e-06
3.88273827506e-09
7.45749907876e-06
1.63967991691e-09
7.45714598617e-06
3.5299858676e-10
7.45748339523e-06
-3.37444882222e-10
7.45813452433e-06
-6.51133652089e-10
7.45888659803e-06
-7.52011439376e-10
7.45962039292e-06
-7.33699607997e-10
7.46027690127e-06
-6.56501990594e-10
7.46083338389e-06
-5.56523341721e-10
7.46128758986e-06
-4.54232532252e-10
7.46164782526e-06
-3.60252589455e-10
7.46192700128e-06
-2.79184220752e-10
7.46213922115e-06
-2.12192042154e-10
7.46229777216e-06
-1.58555429985e-10
7.46241437218e-06
-1.1663949078e-10
7.46249891639e-06
-8.45977363909e-11
7.46255931944e-06
-6.05551859992e-11
7.46260188769e-06
-4.27389744506e-11
7.46263156794e-06
-2.9732772081e-11
7.46265199931e-06
-2.04170842811e-11
7.46266580227e-06
-1.37919625904e-11
7.46267504267e-06
-9.13232965792e-12
7.46268116646e-06
-5.97295979063e-12
7.46268510768e-06
-3.86987150524e-12
7.46268769091e-06
-2.51091021173e-12
7.46268935943e-06
-1.55274595142e-12
7.46269033939e-06
-8.90377965628e-13
7.46269092768e-06
-5.23488533082e-13
7.46269131133e-06
-3.56103961073e-13
7.46269152999e-06
-2.74246291508e-13
7.462691709e-06
-1.9574451918e-13
7.46269194551e-06
-1.77856458232e-13
7.4626921777e-06
-2.19561574656e-13
7.46269243774e-06
-2.66631500914e-13
7.46269278399e-06
-3.31752060754e-13
7.46269315544e-06
-3.80116816243e-13
7.46269355047e-06
-3.52061983798e-13
7.46269405473e-06
-3.30870969791e-13
7.46269459353e-06
-3.83355445463e-13
7.4626950891e-06
-4.35368566003e-13
7.46269558701e-06
-4.47155913165e-13
7.46269610767e-06
-4.44764625735e-13
7.46269665701e-06
-4.58790651463e-13
7.46269722993e-06
-5.1136014134e-13
7.46269779219e-06
-5.71739931253e-13
7.46269835721e-06
-5.89280925894e-13
7.46269898075e-06
-5.95502972876e-13
7.46269961648e-06
-6.49900596992e-13
7.46270021152e-06
-7.24972439755e-13
7.46270079875e-06
-7.53575052384e-13
7.46270145088e-06
-7.49695288606e-13
7.46270217693e-06
-7.90631583701e-13
7.46270291297e-06
-8.7158353298e-13
7.46270367594e-06
-9.32624222398e-13
7.462704538e-06
-9.98671020707e-13
7.46270544317e-06
-1.07153771847e-12
7.46270636159e-06
-1.08880045995e-12
7.46270740487e-06
-1.10035564149e-12
7.46270852966e-06
-1.16937382682e-12
7.46270963153e-06
-1.21884492522e-12
7.46271077081e-06
-1.23827272651e-12
7.46271196298e-06
-1.30315673399e-12
7.46271317921e-06
-1.36169221214e-12
7.46271455048e-06
-1.37453955706e-12
7.46271609034e-06
-1.42124234212e-12
7.46271762059e-06
-1.4981243875e-12
7.46271915062e-06
-1.56148032174e-12
7.46272079169e-06
-1.64698098103e-12
7.46272253443e-06
-1.74402955472e-12
7.46272436599e-06
-1.79487895255e-12
7.46272628701e-06
-1.81264119601e-12
7.46272820449e-06
-1.81455932723e-12
7.4627301228e-06
-1.8311086142e-12
7.46273210619e-06
-1.93751299644e-12
7.46273410233e-06
-2.09978550957e-12
7.46273612244e-06
-2.21280538388e-12
7.46273825223e-06
-2.24666257665e-12
7.46274053332e-06
-2.24494188379e-12
7.46274295214e-06
-2.30388651776e-12
7.46274544009e-06
-2.46024975581e-12
7.46274799513e-06
-2.58252358979e-12
7.46275082464e-06
-2.64462250364e-12
7.46275393471e-06
-2.80983679266e-12
7.46275715034e-06
-3.09200837777e-12
7.46276061124e-06
-3.47951177189e-12
7.46276438837e-06
-3.96787793933e-12
7.46276852254e-06
-4.43200031177e-12
7.4627733131e-06
-4.89877574704e-12
7.46277890192e-06
-5.54251241385e-12
7.46278529266e-06
-6.40569877969e-12
7.46279275897e-06
-7.50812286566e-12
7.46280157691e-06
-8.88532645204e-12
7.4628119885e-06
-1.05071153589e-11
7.46282448496e-06
-1.24856843887e-11
7.46283952366e-06
-1.50110369406e-11
7.46285764552e-06
-1.8076613963e-11
7.46287973144e-06
-2.18640698929e-11
7.46290668412e-06
-2.6757323676e-11
7.46293954171e-06
-3.28931213851e-11
7.46297982955e-06
-4.03783407585e-11
7.46302935766e-06
-4.9586009883e-11
7.46309031208e-06
-6.10143996453e-11
7.46316553627e-06
-7.51925500832e-11
7.463258403e-06
-9.27288882901e-11
7.4633729954e-06
-1.14484794409e-10
7.46351470796e-06
-1.41754055299e-10
7.46369153214e-06
-1.76982130769e-10
7.4639122339e-06
-2.20897750728e-10
7.46418194073e-06
-2.69593107228e-10
7.46451511999e-06
-3.32717855649e-10
7.46492733077e-06
-4.1193209582e-10
7.46543758043e-06
-5.10293184173e-10
7.46606958503e-06
-6.32037499347e-10
7.46685252592e-06
-7.82813853365e-10
7.46782224291e-06
-9.69644755516e-10
7.46902345079e-06
-1.20120816803e-09
7.4705115298e-06
-1.48815528511e-09
7.47235524966e-06
-1.84372590095e-09
7.47464024954e-06
-2.2848563362e-09
7.47747256807e-06
-2.83235346037e-09
7.4809842351e-06
-3.51178252341e-09
7.48533983024e-06
-4.35562052883e-09
7.49074439761e-06
-5.40474240131e-09
7.49745390706e-06
-6.70991393162e-09
7.50578940204e-06
-8.33552294462e-09
7.51615339258e-06
-1.03637490765e-08
7.52905244696e-06
-1.28989810753e-08
7.54512771351e-06
-1.6075115438e-08
7.56519390217e-06
-2.00659179931e-08
7.59029280831e-06
-2.50989079364e-08
7.6217673356e-06
-3.14749928761e-08
7.66136585061e-06
-3.95990190264e-08
7.71139266571e-06
-5.00271565159e-08
7.77493795355e-06
-6.35454031823e-08
7.85625354051e-06
-8.13157671562e-08
7.96144917619e-06
-1.05195674913e-07
8.1000060335e-06
-1.38557101736e-07
8.28866145121e-06
-1.88655675596e-07
8.56239983926e-06
-2.73737920913e-07
9.00707927763e-06
-4.44679340367e-07
9.86325577114e-06
-8.56176660645e-07
1.18717959762e-05
-2.00853943074e-06
-5.44717980884e-06
1.73189775052e-05
5.01388817037e-05
1.61068138174e-05
4.41591294519e-05
1.71980944449e-05
3.77598739848e-05
1.2632839983e-05
3.26495143562e-05
8.6029121971e-06
2.89465821042e-05
5.70617763839e-06
2.63676030409e-05
3.78078982862e-06
2.45938848564e-05
2.52680846933e-06
2.33783979719e-05
1.70213481562e-06
2.2547323511e-05
1.15091904275e-06
2.19811565071e-05
7.7761110091e-07
2.15978042615e-05
5.22812305664e-07
2.13405415033e-05
3.48464598353e-07
2.11699442358e-05
2.29412311175e-07
2.10585367203e-05
1.48595961005e-07
2.09871858101e-05
9.42390025286e-08
2.09426223106e-05
5.81290188494e-08
2.09157077401e-05
3.45170028458e-08
2.09002078744e-05
1.9382446522e-08
2.08919203425e-05
9.92708654756e-09
2.08880552039e-05
4.21810776772e-09
2.08867856199e-05
9.32210317604e-10
2.08869507055e-05
-8.16159422492e-10
2.08878290626e-05
-1.63037626443e-09
2.08889876412e-05
-1.89224139338e-09
2.08901810957e-05
-1.84992712065e-09
2.08912816559e-05
-1.65708793037e-09
2.08922331264e-05
-1.40572806077e-09
2.0893020807e-05
-1.14798094474e-09
2.08936523826e-05
-9.10844416968e-10
2.08941462929e-05
-7.06129221333e-10
2.08945245746e-05
-5.36871671617e-10
2.08948090477e-05
-4.01276827573e-10
2.08950196137e-05
-2.95331708939e-10
2.0895173181e-05
-2.14278465018e-10
2.0895283579e-05
-1.53307920079e-10
2.08953619465e-05
-1.0812490896e-10
2.08954169179e-05
-7.52095227606e-11
2.08954548558e-05
-5.15957324317e-11
2.08954806507e-05
-3.4831965637e-11
2.08954980006e-05
-2.31168934746e-11
2.08955094114e-05
-1.50729566736e-11
2.08955166641e-05
-9.6059992778e-12
2.0895521219e-05
-5.97109453715e-12
2.08955240078e-05
-3.62910646643e-12
2.08955256042e-05
-2.12235414765e-12
2.08955265023e-05
-1.17406296651e-12
2.08955269269e-05
-6.60364027589e-13
2.08955271322e-05
-4.41962551177e-13
2.08955273134e-05
-3.32672295726e-13
2.08955274629e-05
-3.47786965241e-13
2.08955275747e-05
-3.92417806402e-13
2.08955277662e-05
-4.39060015848e-13
2.08955280166e-05
-5.00179649391e-13
2.08955282476e-05
-5.04014746059e-13
2.08955285743e-05
-4.49028074365e-13
2.08955290042e-05
-4.58550346669e-13
2.08955294082e-05
-5.61745790554e-13
2.0895529772e-05
-6.95627548777e-13
2.08955301127e-05
-8.07453489216e-13
2.08955304606e-05
-8.78135310902e-13
2.0895530875e-05
-9.33953208776e-13
2.08955313417e-05
-1.00250552294e-12
2.08955317941e-05
-1.05377941272e-12
2.0895532262e-05
-1.0818353722e-12
2.08955327566e-05
-1.16272784881e-12
2.08955332244e-05
-1.32340831521e-12
2.08955336349e-05
-1.48994627543e-12
2.08955340579e-05
-1.58048651971e-12
2.08955345842e-05
-1.62774934556e-12
2.08955351632e-05
-1.69152125535e-12
2.08955357369e-05
-1.74368399276e-12
2.08955364068e-05
-1.80468053415e-12
2.08955371493e-05
-1.93421021704e-12
2.08955378255e-05
-2.05406916931e-12
2.08955385679e-05
-2.09753079044e-12
2.08955394809e-05
-2.14448439077e-12
2.08955404003e-05
-2.22151299452e-12
2.0895541281e-05
-2.30127245543e-12
2.089554221e-05
-2.41909494282e-12
2.08955431758e-05
-2.51900461292e-12
2.08955442768e-05
-2.51400669354e-12
2.08955455906e-05
-2.52275242287e-12
2.08955469032e-05
-2.65856184042e-12
2.08955481346e-05
-2.8437914169e-12
2.08955494792e-05
-3.01561550709e-12
2.08955510205e-05
-3.17874640381e-12
2.08955526938e-05
-3.31541444968e-12
2.08955544551e-05
-3.45597598218e-12
2.08955561832e-05
-3.61858097882e-12
2.08955578806e-05
-3.73720718594e-12
2.0895559724e-05
-3.83990160312e-12
2.08955617199e-05
-4.01664051652e-12
2.08955638436e-05
-4.24524806251e-12
2.08955661614e-05
-4.46248961616e-12
2.08955686878e-05
-4.68375369094e-12
2.08955714553e-05
-5.00529977512e-12
2.08955745473e-05
-5.49785167454e-12
2.08955779411e-05
-6.04287465573e-12
2.0895581809e-05
-6.54750011386e-12
2.08955863159e-05
-7.18245452921e-12
2.08955913706e-05
-8.05425988855e-12
2.08955971946e-05
-9.16665829438e-12
2.08956040161e-05
-1.06644168041e-11
2.08956118632e-05
-1.2519088144e-11
2.0895621147e-05
-1.46237605945e-11
2.08956324149e-05
-1.71213793033e-11
2.08956459508e-05
-2.01722028513e-11
2.08956622606e-05
-2.38658569706e-11
2.08956819107e-05
-2.83441476843e-11
2.08957050728e-05
-3.35060743022e-11
2.08957337111e-05
-4.09100848427e-11
2.08957695457e-05
-5.05882210786e-11
2.08958135907e-05
-6.21426168822e-11
2.08958678406e-05
-7.6264855805e-11
2.08959349182e-05
-9.37889039207e-11
2.08960176828e-05
-1.15576567957e-10
2.08961197469e-05
-1.4252807462e-10
2.08962457955e-05
-1.75839687702e-10
2.08964017109e-05
-2.17014687365e-10
2.08965947243e-05
-2.67947588793e-10
2.08968334062e-05
-3.31062097973e-10
2.08971283003e-05
-4.09226849083e-10
2.08974925682e-05
-5.05900662999e-10
2.08979417219e-05
-6.25743763976e-10
2.08984958864e-05
-7.74865756715e-10
2.08991863126e-05
-9.602814827e-10
2.09000436227e-05
-1.19018980269e-09
2.09011068349e-05
-1.4751196366e-09
2.09024244705e-05
-1.82802822987e-09
2.09040571669e-05
-2.26485270674e-09
2.09060803017e-05
-2.80577383442e-09
2.09085869294e-05
-3.47597740659e-09
2.091169272e-05
-4.30655928113e-09
2.09155408822e-05
-5.33603004424e-09
2.09203089692e-05
-6.61208983528e-09
2.09262182833e-05
-8.19433274932e-09
2.09335433625e-05
-1.0157220978e-08
2.09426251463e-05
-1.25934925514e-08
2.0953888531e-05
-1.56191266624e-08
2.09678635533e-05
-1.93797249234e-08
2.09852113706e-05
-2.40580663154e-08
2.10067600418e-05
-2.98847984604e-08
2.10335487665e-05
-3.7152966093e-08
2.10668852367e-05
-4.62360859487e-08
2.11084231232e-05
-5.76136591432e-08
2.11602643287e-05
-7.19073919617e-08
2.12250980198e-05
-8.99321335661e-08
2.13063938503e-05
-1.1277023041e-07
2.14086801399e-05
-1.41884953001e-07
2.15379553711e-05
-1.79302465576e-07
2.17023313845e-05
-2.27921174798e-07
2.19130961239e-05
-2.92080041762e-07
2.21866001218e-05
-3.78699381181e-07
2.25478240275e-05
-4.99780491236e-07
2.30374790202e-05
-6.78311036567e-07
2.37264657932e-05
-9.62725518197e-07
2.47434153509e-05
-1.46162866285e-06
2.63131765732e-05
-2.42593767811e-06
2.87462697925e-05
-4.44163352582e-06
-8.70106492117e-06
3.20001544784e-05
5.35844266416e-05
1.25223870593e-05
5.2916600835e-05
1.78659203057e-05
4.96393017899e-05
1.59101393603e-05
4.58382169601e-05
1.24039965393e-05
4.24428745363e-05
9.10152009771e-06
3.97331592614e-05
6.49050517424e-06
3.76912450229e-05
4.56872239167e-06
3.62011666446e-05
3.19221310891e-06
3.51355933089e-05
2.2164924477e-06
3.43848442324e-05
1.52836016387e-06
3.38626587708e-05
1.04499786521e-06
3.35040066165e-05
7.07117004802e-07
3.32609628105e-05
4.72456374591e-07
3.30987209455e-05
3.10838001799e-07
3.29922910679e-05
2.00668977469e-07
3.29239199083e-05
1.26500148011e-07
3.28811299385e-05
7.73068325137e-08
3.28552512904e-05
4.52609763394e-08
3.28403347571e-05
2.48435208267e-08
3.28323548523e-05
1.21979927099e-08
3.28286290677e-05
4.65810543959e-09
3.28274052636e-05
4.07777860813e-10
3.28275647482e-05
-1.78985467082e-09
3.28284108614e-05
-2.73836585091e-09
3.28295270088e-05
-2.96608324185e-09
3.28306766781e-05
-2.80679558742e-09
3.28317368017e-05
-2.46590577149e-09
3.28326532889e-05
-2.06450507828e-09
3.28334119431e-05
-1.6695751881e-09
3.28340202483e-05
-1.31449617025e-09
3.28344959172e-05
-1.01258276128e-09
3.28348601048e-05
-7.65618005604e-10
3.28351340035e-05
-5.69376605801e-10
3.28353367679e-05
-4.17075469123e-10
3.28354846126e-05
-3.01174047378e-10
3.28355908916e-05
-2.14424868185e-10
3.28356663463e-05
-1.50544943907e-10
3.28357191244e-05
-1.04253600931e-10
3.28357554485e-05
-7.11244838235e-11
3.28357801569e-05
-4.77151192034e-11
3.28357967054e-05
-3.14493873659e-11
3.28358075671e-05
-2.0329610425e-11
3.28358145931e-05
-1.28687087116e-11
3.28358190189e-05
-7.98032114099e-12
3.28358216786e-05
-4.81026603325e-12
3.28358233257e-05
-2.79546817338e-12
3.28358243314e-05
-1.61194809222e-12
3.28358247776e-05
-9.30917605076e-13
3.28358249518e-05
-5.39341121351e-13
3.28358250402e-05
-4.32359287532e-13
3.2835825063e-05
-4.18109395918e-13
3.28358251353e-05
-4.02929876341e-13
3.28358253084e-05
-4.28643406734e-13
3.28358254509e-05
-4.72601022689e-13
3.28358255868e-05
-4.81028560074e-13
3.28358257914e-05
-5.16786353118e-13
3.28358260171e-05
-6.33320166999e-13
3.28358262547e-05
-8.04907733148e-13
3.28358264868e-05
-9.77885355476e-13
3.2835826699e-05
-1.11388946715e-12
3.28358269638e-05
-1.20802678468e-12
3.28358272947e-05
-1.29790073388e-12
3.28358276026e-05
-1.39570221736e-12
3.28358278654e-05
-1.47493400176e-12
3.28358281338e-05
-1.57234599183e-12
3.28358284438e-05
-1.73822787289e-12
3.28358287568e-05
-1.94290816381e-12
3.28358290318e-05
-2.09756597192e-12
3.28358293397e-05
-2.19005325109e-12
3.28358297081e-05
-2.28899700178e-12
3.28358300434e-05
-2.36318317605e-12
3.28358304279e-05
-2.41654277749e-12
3.28358309385e-05
-2.52557148838e-12
3.28358314226e-05
-2.67587052936e-12
3.28358318929e-05
-2.76659305607e-12
3.28358324865e-05
-2.82805055324e-12
3.28358330978e-05
-2.92432922232e-12
3.2835833667e-05
-3.02233193142e-12
3.28358343484e-05
-3.13273652653e-12
3.28358351142e-05
-3.2663173931e-12
3.28358358817e-05
-3.35370300492e-12
3.28358367496e-05
-3.43593906287e-12
3.28358376879e-05
-3.61727849212e-12
3.28358386102e-05
-3.85102042786e-12
3.2835839617e-05
-4.05378599591e-12
3.28358407965e-05
-4.23762940948e-12
3.2835842099e-05
-4.42194908809e-12
3.28358435267e-05
-4.64143638688e-12
3.2835845011e-05
-4.92976409547e-12
3.28358464554e-05
-5.2195675439e-12
3.28358479636e-05
-5.47719922038e-12
3.28358496417e-05
-5.76724496841e-12
3.28358515486e-05
-6.11607856206e-12
3.28358537193e-05
-6.52603748391e-12
3.28358561085e-05
-7.02275512488e-12
3.2835858779e-05
-7.63690727218e-12
3.28358619539e-05
-8.44240558229e-12
3.28358655702e-05
-9.43365701497e-12
3.28358695505e-05
-1.0486745288e-11
3.28358743304e-05
-1.19696148264e-11
3.28358799996e-05
-1.39122648583e-11
3.28358867373e-05
-1.61695159791e-11
3.28358949975e-05
-1.89856972437e-11
3.28359049581e-05
-2.25270420444e-11
3.28359169571e-05
-2.67780621186e-11
3.28359316821e-05
-3.19457245699e-11
3.28359497287e-05
-3.83265238484e-11
3.2835971936e-05
-4.61430863562e-11
3.28359995465e-05
-5.58417912236e-11
3.28360340388e-05
-6.79454539613e-11
3.2836076158e-05
-8.29725711927e-11
3.28361275654e-05
-1.01727196299e-10
3.28361906657e-05
-1.25107922349e-10
3.28362682522e-05
-1.54029903016e-10
3.28363640785e-05
-1.89735046974e-10
3.2836482481e-05
-2.33930611331e-10
3.28366286905e-05
-2.88681018624e-10
3.28368093468e-05
-3.56480947205e-10
3.28370327221e-05
-4.40368928047e-10
3.2837309041e-05
-5.44209174999e-10
3.28376508023e-05
-6.728358793e-10
3.28380735231e-05
-8.32057694429e-10
3.28385965834e-05
-1.02904377977e-09
3.2839244298e-05
-1.27318174817e-09
3.28400460947e-05
-1.57620841926e-09
3.28410379184e-05
-1.95200941676e-09
3.28422654977e-05
-2.41789484022e-09
3.2843785601e-05
-2.9952068207e-09
3.28456681286e-05
-3.71039751877e-09
3.28479994782e-05
-4.59619753965e-09
3.28508869741e-05
-5.6934087638e-09
3.28544634521e-05
-7.05268340824e-09
3.28588938321e-05
-8.73689658726e-09
3.28643824047e-05
-1.08243698125e-08
3.28711822034e-05
-1.34120860875e-08
3.28796081705e-05
-1.66205656597e-08
3.28900513197e-05
-2.06004233947e-08
3.29029971357e-05
-2.55395239072e-08
3.29190499498e-05
-3.16723197852e-08
3.29389632119e-05
-3.92928422775e-08
3.29636760614e-05
-4.87706412063e-08
3.2994362653e-05
-6.05713407679e-08
3.30324948311e-05
-7.52848777861e-08
3.30799216758e-05
-9.36626134374e-08
3.31389756268e-05
-1.16667701267e-07
3.32126130465e-05
-1.45545373039e-07
3.33046036242e-05
-1.81923165428e-07
3.34197904742e-05
-2.27957183651e-07
3.35644585561e-05
-2.86552927099e-07
3.3746869758e-05
-3.61713955725e-07
3.3978071081e-05
-4.59122468689e-07
3.42731559085e-05
-5.87164876161e-07
3.46533000153e-05
-7.5884385958e-07
3.51490754984e-05
-9.95555956182e-07
3.58056247597e-05
-1.33486030936e-06
3.66895714499e-05
-1.84667183042e-06
3.78934926475e-05
-2.66554982399e-06
3.95160026291e-05
-4.0484484066e-06
4.15358106382e-05
-6.46144173495e-06
-1.05800841412e-05
4.34148307823e-05
5.35705201256e-05
8.95186695386e-06
5.55863055469e-05
1.58501346519e-05
5.52410591929e-05
1.62553862121e-05
5.35976158296e-05
1.40474394833e-05
5.15429057701e-05
1.11562299313e-05
4.95819403764e-05
8.45147065096e-06
4.79262509481e-05
6.22441157349e-06
4.66200394686e-05
4.49842439949e-06
4.56322336228e-05
3.20429836527e-06
4.49066874997e-05
2.2539063676e-06
4.43854422468e-05
1.56624324563e-06
4.40178331144e-05
1.07472637908e-06
4.37629128358e-05
7.27376915274e-07
4.35890454866e-05
4.84705505553e-07
4.34725023437e-05
3.17212170326e-07
4.33958693015e-05
2.03133119768e-07
4.33465912113e-05
1.26584820291e-07
4.33157570289e-05
7.60950645538e-08
4.32971355758e-05
4.34649491535e-08
4.32864340166e-05
2.28995597888e-08
4.32807407864e-05
1.03513961009e-08
4.32781181732e-05
3.0305038523e-09
4.32772915671e-05
-9.63204146238e-10
4.32774561278e-05
-2.90293155509e-09
4.32781075707e-05
-3.61756333225e-09
4.3278945583e-05
-3.6448946313e-09
4.32798005236e-05
-3.32096916313e-09
4.32805848637e-05
-2.84890946662e-09
4.32812606654e-05
-2.3454397192e-09
4.32818187564e-05
-1.87265677463e-09
4.32822654475e-05
-1.45928768934e-09
4.32826141368e-05
-1.11437869849e-09
4.32828807664e-05
-8.36100027551e-10
4.32830811203e-05
-6.17411356512e-10
4.32832292639e-05
-4.49264344735e-10
4.32833371132e-05
-3.22311938984e-10
4.32834146077e-05
-2.28017416299e-10
4.32834695435e-05
-1.59091995232e-10
4.32835078722e-05
-1.09405176739e-10
4.32835342822e-05
-7.40465137523e-11
4.32835522417e-05
-4.92763656886e-11
4.32835642133e-05
-3.22009604177e-11
4.32835720664e-05
-2.06134972528e-11
4.3283577127e-05
-1.29150788509e-11
4.32835802132e-05
-7.88581828372e-12
4.32835820388e-05
-4.6417864062e-12
4.32835831027e-05
-2.6551865279e-12
4.32835836305e-05
-1.51400373219e-12
4.32835839071e-05
-8.73773955191e-13
4.32835840772e-05
-5.62785642318e-13
4.32835841357e-05
-4.22049037338e-13
4.32835841546e-05
-3.20055946823e-13
4.32835842377e-05
-2.49585223311e-13
4.3283584317e-05
-2.86097972657e-13
4.3283584344e-05
-3.7046696287e-13
4.32835843898e-05
-4.9280973918e-13
4.3283584421e-05
-6.25142804387e-13
4.32835844553e-05
-7.91889853362e-13
4.3283584495e-05
-9.57094381798e-13
4.32835845146e-05
-1.11444817784e-12
4.32835845354e-05
-1.22975197822e-12
4.328358462e-05
-1.33802087063e-12
4.32835847033e-05
-1.47444589897e-12
4.3283584728e-05
-1.62660001293e-12
4.32835847122e-05
-1.77597854069e-12
4.32835846958e-05
-1.92224365984e-12
4.32835846852e-05
-2.08723401125e-12
4.32835846419e-05
-2.25173390178e-12
4.32835846094e-05
-2.37648604102e-12
4.3283584642e-05
-2.49212024987e-12
4.32835846653e-05
-2.6004351953e-12
4.32835846643e-05
-2.66964705121e-12
4.32835847633e-05
-2.74460342822e-12
4.32835848867e-05
-2.87012073029e-12
4.32835849633e-05
-2.98434763699e-12
4.32835851069e-05
-3.07082887875e-12
4.32835852744e-05
-3.18657322738e-12
4.32835853744e-05
-3.30354991397e-12
4.32835855683e-05
-3.39619399022e-12
4.32835858936e-05
-3.52671119764e-12
4.32835861853e-05
-3.69532969058e-12
4.32835864746e-05
-3.86961154115e-12
4.32835868318e-05
-4.0734832123e-12
4.32835872262e-05
-4.29919704643e-12
4.32835877093e-05
-4.51521697599e-12
4.32835883429e-05
-4.74816699786e-12
4.32835890548e-05
-5.00732775707e-12
4.32835898783e-05
-5.28191381982e-12
4.3283590845e-05
-5.61540784245e-12
4.32835918256e-05
-6.02674983274e-12
4.32835928301e-05
-6.48612688511e-12
4.32835939956e-05
-6.97494415161e-12
4.32835954405e-05
-7.51069550638e-12
4.32835972201e-05
-8.17914714385e-12
4.32835992805e-05
-9.04636902494e-12
4.32836016372e-05
-1.00829648213e-11
4.32836045934e-05
-1.13365347925e-11
4.32836082634e-05
-1.29273252535e-11
4.32836127101e-05
-1.48696790535e-11
4.32836180827e-05
-1.72567188463e-11
4.32836243964e-05
-2.0282450189e-11
4.32836318341e-05
-2.39645031946e-11
4.32836409486e-05
-2.83997657142e-11
4.32836521534e-05
-3.38511606113e-11
4.32836658158e-05
-4.05381108109e-11
4.32836826703e-05
-4.87757114821e-11
4.3283703434e-05
-5.89857394738e-11
4.32837289214e-05
-7.15676160128e-11
4.32837603926e-05
-8.71732477536e-11
4.32837991296e-05
-1.06643937225e-10
4.32838468681e-05
-1.30846644339e-10
4.32839059705e-05
-1.60846366281e-10
4.3283979016e-05
-1.98090170088e-10
4.32840691523e-05
-2.44224768074e-10
4.3284180597e-05
-3.01223766498e-10
4.32843184137e-05
-3.71716634302e-10
4.32844887516e-05
-4.58997645852e-10
4.328469941e-05
-5.67082309207e-10
4.32849600094e-05
-7.00899208675e-10
4.32852824511e-05
-8.66553592784e-10
4.32856814573e-05
-1.07167786969e-09
4.32861752463e-05
-1.3257035009e-09
4.32867862268e-05
-1.64019263164e-09
4.32875425422e-05
-2.02968134485e-09
4.32884789963e-05
-2.51250209349e-09
4.3289638134e-05
-3.11103720573e-09
4.32910728232e-05
-3.85274638456e-09
4.32928490326e-05
-4.77148857921e-09
4.32950483326e-05
-5.90950505461e-09
4.32977713979e-05
-7.31921011331e-09
4.33011433581e-05
-9.06548030669e-09
4.33053190898e-05
-1.12286638093e-08
4.33104906112e-05
-1.39086348068e-08
4.33168961546e-05
-1.72298513959e-08
4.33248306329e-05
-2.13466131966e-08
4.33346603759e-05
-2.6450486483e-08
4.33468402882e-05
-3.27804112876e-08
4.3361935076e-05
-4.06343548724e-08
4.33806465191e-05
-5.03840213331e-08
4.3403848506e-05
-6.24948447643e-08
4.3432629096e-05
-7.75511420547e-08
4.34683455636e-05
-9.62879314575e-08
4.35126950681e-05
-1.1963429048e-07
4.35678034834e-05
-1.48770701082e-07
4.36363418874e-05
-1.85205684246e-07
4.37216786467e-05
-2.30881916697e-07
4.3828081029e-05
-2.88325535065e-07
4.39609855022e-05
-3.60861752913e-07
4.41273677982e-05
-4.52934966573e-07
4.43362552148e-05
-5.70601064324e-07
4.45994508625e-05
-7.2231806643e-07
4.4932554591e-05
-9.20268726253e-07
4.5356375424e-05
-1.18266464074e-06
4.58987124057e-05
-1.53789241156e-06
4.65959337988e-05
-2.0320814921e-06
4.74919913111e-05
-2.74272976791e-06
4.86276518072e-05
-3.80121022883e-06
5.00012655176e-05
-5.42206151782e-06
5.14592305941e-05
-7.91940731713e-06
-1.16130187061e-05
5.24921651702e-05
5.27606087314e-05
6.19125841799e-06
5.57402404308e-05
1.28705024258e-05
5.73124122468e-05
1.46832149204e-05
5.76111980307e-05
1.37486534909e-05
5.71338683885e-05
1.1633559133e-05
5.6319983972e-05
9.26535507831e-06
5.54496447535e-05
7.09475063225e-06
5.46637025458e-05
5.28436640542e-06
5.40144127282e-05
3.85358823163e-06
5.35068422531e-05
2.76147698412e-06
5.31248779016e-05
1.94820778763e-06
5.28455240999e-05
1.35408043679e-06
5.26458881416e-05
9.27013114423e-07
5.25060756287e-05
6.2451811569e-07
5.24099980514e-05
4.1328978385e-07
5.23452164937e-05
2.67914600007e-07
5.23024114816e-05
1.69389738449e-07
5.22747665529e-05
1.03739934938e-07
5.2257394396e-05
6.08371224705e-08
5.22468523992e-05
3.34415923365e-08
5.2240756221e-05
1.64476026341e-08
5.223748335e-05
6.3034551427e-09
5.22359422118e-05
5.77972188614e-10
5.22354269705e-05
-2.38770882225e-09
5.22354789435e-05
-3.66959009144e-09
5.22358138135e-05
-3.97986470962e-09
5.22362610661e-05
-3.76836351974e-09
5.22367239203e-05
-3.31183629827e-09
5.22371517724e-05
-2.77333504698e-09
5.2237522157e-05
-2.24311767103e-09
5.22378291151e-05
-1.76624209877e-09
5.22380754127e-05
-1.36064375291e-09
5.22382680496e-05
-1.02874814226e-09
5.22384156472e-05
-7.64984682665e-10
5.22385267411e-05
-5.60292762606e-10
5.22386089225e-05
-4.04540735129e-10
5.22386688531e-05
-2.88002532635e-10
5.22387120158e-05
-2.02186044795e-10
5.22387426124e-05
-1.39927743822e-10
5.2238764006e-05
-9.53769199345e-11
5.22387788002e-05
-6.3978243543e-11
5.2238788854e-05
-4.21862948114e-11
5.22387955849e-05
-2.72691424306e-11
5.22388000646e-05
-1.72588086005e-11
5.22388029159e-05
-1.06961059435e-11
5.22388046665e-05
-6.45058056718e-12
5.22388057671e-05
-3.77939868025e-12
5.22388063789e-05
-2.16337703824e-12
5.22388066602e-05
-1.1805769832e-12
5.22388068132e-05
-6.06453333972e-13
5.22388068476e-05
-2.96679189581e-13
5.22388067648e-05
-1.25783649433e-13
5.2238806738e-05
-4.49997562218e-14
5.22388067307e-05
-6.63525723776e-14
5.22388066523e-05
-1.71035023429e-13
5.22388065284e-05
-3.19063655208e-13
5.22388064401e-05
-5.15181166582e-13
5.22388063588e-05
-6.90962060427e-13
5.22388063063e-05
-8.6108019857e-13
5.22388062629e-05
-1.03634802638e-12
5.22388061961e-05
-1.18664880895e-12
5.22388061436e-05
-1.30324683459e-12
5.22388060961e-05
-1.43687619222e-12
5.22388060013e-05
-1.60733113022e-12
5.22388058354e-05
-1.79161780473e-12
5.22388056496e-05
-1.96529250245e-12
5.22388055034e-05
-2.14192652539e-12
5.22388053444e-05
-2.31494729829e-12
5.22388051428e-05
-2.43549583301e-12
5.22388049995e-05
-2.51793977052e-12
5.22388048886e-05
-2.60810887612e-12
5.22388047016e-05
-2.66801378866e-12
5.22388045351e-05
-2.70887425424e-12
5.22388044267e-05
-2.81790274154e-12
5.22388042865e-05
-2.94906878809e-12
5.22388041777e-05
-3.03807855979e-12
5.22388041283e-05
-3.156040164e-12
5.22388040059e-05
-3.30530370808e-12
5.22388038772e-05
-3.42636925358e-12
5.22388038729e-05
-3.58389731432e-12
5.22388038846e-05
-3.80819795327e-12
5.22388038586e-05
-4.01906647242e-12
5.22388038667e-05
-4.19632348556e-12
5.22388039192e-05
-4.36567733556e-12
5.22388040421e-05
-4.54482495802e-12
5.22388043069e-05
-4.79780712935e-12
5.22388046345e-05
-5.13261236313e-12
5.22388050011e-05
-5.47591420883e-12
5.22388054971e-05
-5.86910373106e-12
5.22388060639e-05
-6.3955194868e-12
5.22388066761e-05
-7.01356346634e-12
5.22388074175e-05
-7.65629773451e-12
5.22388083616e-05
-8.35962822579e-12
5.22388095877e-05
-9.2655680204e-12
5.22388111416e-05
-1.04897289995e-11
5.2238812977e-05
-1.19742272181e-11
5.22388152917e-05
-1.36983697182e-11
5.22388182728e-05
-1.58499714133e-11
5.22388218728e-05
-1.8526146496e-11
5.22388263858e-05
-2.18308489631e-11
5.22388320545e-05
-2.59977146206e-11
5.22388389793e-05
-3.11101535772e-11
5.22388476042e-05
-3.72433151399e-11
5.22388584193e-05
-4.47425446606e-11
5.22388718082e-05
-5.40023640642e-11
5.22388885171e-05
-6.54515026394e-11
5.22389093632e-05
-7.96748708631e-11
5.22389351206e-05
-9.72902314752e-11
5.22389671248e-05
-1.19125207032e-10
5.22390068714e-05
-1.46300061806e-10
5.22390559322e-05
-1.80007342702e-10
5.22391165801e-05
-2.21676870675e-10
5.22391916931e-05
-2.73273775846e-10
5.22392846565e-05
-3.37165331303e-10
5.22393997485e-05
-4.16202933066e-10
5.22395421818e-05
-5.14056554786e-10
5.22397183635e-05
-6.35230637354e-10
5.223993642e-05
-7.85220161189e-10
5.22402063473e-05
-9.70851103956e-10
5.22405404852e-05
-1.20065098343e-09
5.224095414e-05
-1.48516798727e-09
5.22414663378e-05
-1.83759485347e-09
5.22421002946e-05
-2.27410793565e-09
5.22428849751e-05
-2.81459583463e-09
5.22438565298e-05
-3.48410481587e-09
5.22450593275e-05
-4.31377820137e-09
5.22465482199e-05
-5.34172003329e-09
5.22483914252e-05
-6.61486362724e-09
5.22506734683e-05
-8.19170683893e-09
5.22534987993e-05
-1.01448137634e-08
5.22569972436e-05
-1.25640177249e-08
5.22613292381e-05
-1.55607309575e-08
5.22666933842e-05
-1.92731449316e-08
5.22733364763e-05
-2.38731031163e-08
5.22815638881e-05
-2.95740398361e-08
5.22917541625e-05
-3.66408776012e-08
5.23043771509e-05
-4.54033985247e-08
5.23200157889e-05
-5.62726932354e-08
5.23393930809e-05
-6.97612260331e-08
5.23634076911e-05
-8.65093820072e-08
5.23931766608e-05
-1.07319780209e-07
5.243008915e-05
-1.33200300149e-07
5.24758758392e-05
-1.65421127192e-07
5.25326953936e-05
-2.05590435456e-07
5.26032448274e-05
-2.55755070227e-07
5.26909004252e-05
-3.18537206854e-07
5.27998988705e-05
-3.97323606125e-07
5.29355707486e-05
-4.96533648654e-07
5.31046431731e-05
-6.22007236343e-07
5.3315625189e-05
-7.81582950727e-07
5.35792933763e-05
-9.85985850773e-07
5.39092564462e-05
-1.25023084136e-06
5.43224884101e-05
-1.59589654114e-06