/*--------------------------------*- C++ -*----------------------------------*\
| =========                 |                                                 |
| \\      /  F ield         | OpenFOAM: The Open Source CFD Toolbox           |
|  \\    /   O peration     | Version:  2106                                  |
|   \\  /    A nd           | Website:  www.openfoam.com                      |
|    \\/     M anipulation  |                                                 |
\*---------------------------------------------------------------------------*/
FoamFile
{
    version     2.0;
    format      ascii;
    arch        "LSB;label=32;scalar=64";
    class       volVectorField;
    location    "0.22";
    object      U;
}
// * * * * * * * * * * * * * * * * * * * * * * * * * * * * * * * * * * * * * //

dimensions      [0 1 -1 0 0 0 0];

internalField   nonuniform List<vector> 
9600
(
(0.675396182337 0.157677435772 0)
(0.563826158408 0.102430805291 0)
(0.38153893113 0.0510646930328 0)
(0.283853187771 0.0244589897932 0)
(0.232281028206 0.0119348228832 0)
(0.201907708362 0.00623035768328 0)
(0.183178402578 0.00352192721471 0)
(0.171271981255 0.0021200758745 0)
(0.163512236275 0.00132523562009 0)
(0.158392654811 0.000841456339806 0)
(0.155010693516 0.000534135251167 0)
(0.152789977576 0.000335038596187 0)
(0.151348692183 0.000205520384901 0)
(0.150429247525 0.000121791928805 0)
(0.149856462867 6.84341375035e-05 0)
(0.149511127765 3.51736044186e-05 0)
(0.149312518047 1.5086857706e-05 0)
(0.149206466695 3.5036922585e-06 0)
(0.149157084574 -2.70715776833e-06 0)
(0.149140973872 -5.61202273679e-06 0)
(0.149143257266 -6.52785768386e-06 0)
(0.149154654693 -6.41842495464e-06 0)
(0.149169595242 -5.7819729144e-06 0)
(0.14918496907 -4.92817076723e-06 0)
(0.14919914133 -4.04289765696e-06 0)
(0.149211390099 -3.2240250487e-06 0)
(0.149221528233 -2.51515111914e-06 0)
(0.149229656359 -1.92828633167e-06 0)
(0.149236011353 -1.45807684549e-06 0)
(0.149240878 -1.09122556005e-06 0)
(0.149244538387 -8.11254253393e-07 0)
(0.149247246662 -6.01461106258e-07 0)
(0.149249220632 -4.47412047492e-07 0)
(0.149250638688 -3.36250204884e-07 0)
(0.149251642589 -2.56629209665e-07 0)
(0.14925234412 -2.00144510318e-07 0)
(0.149252828304 -1.60438716483e-07 0)
(0.149253156888 -1.31763319654e-07 0)
(0.149253375982 -1.10442379476e-07 0)
(0.149253520075 -9.47279023213e-08 0)
(0.149253612475 -8.26958487075e-08 0)
(0.149253670257 -7.36230741344e-08 0)
(0.149253705736 -6.96048313475e-08 0)
(0.149253725529 -7.02164552554e-08 0)
(0.14925373463 -7.31340928599e-08 0)
(0.149253737645 -7.78400958212e-08 0)
(0.149253736744 -8.39587924769e-08 0)
(0.149253733564 -9.12260641221e-08 0)
(0.149253730258 -9.97425835405e-08 0)
(0.149253727037 -1.09130752582e-07 0)
(0.149253723553 -1.18862405974e-07 0)
(0.14925372069 -1.2918937317e-07 0)
(0.149253718425 -1.39941046955e-07 0)
(0.149253716133 -1.50710210673e-07 0)
(0.149253714609 -1.62224343391e-07 0)
(0.149253713894 -1.74958624641e-07 0)
(0.14925371241 -1.88253708779e-07 0)
(0.149253709814 -2.01846325482e-07 0)
(0.149253706777 -2.16148190111e-07 0)
(0.149253703579 -2.31733970906e-07 0)
(0.14925370021 -2.4898817858e-07 0)
(0.14925369624 -2.67526814001e-07 0)
(0.149253691409 -2.867410721e-07 0)
(0.149253686342 -3.06951438783e-07 0)
(0.149253681108 -3.28760886851e-07 0)
(0.149253674721 -3.5199939854e-07 0)
(0.149253666945 -3.76343542714e-07 0)
(0.149253658802 -4.0221325379e-07 0)
(0.149253651152 -4.30245929493e-07 0)
(0.149253643471 -4.60150897634e-07 0)
(0.149253635223 -4.91426876423e-07 0)
(0.149253627208 -5.24500322709e-07 0)
(0.149253619527 -5.59393877725e-07 0)
(0.149253611319 -5.95591162589e-07 0)
(0.149253603461 -6.33868434879e-07 0)
(0.149253596693 -6.74877447097e-07 0)
(0.149253589548 -7.17625565748e-07 0)
(0.149253581532 -7.61929959889e-07 0)
(0.149253573325 -8.08817608247e-07 0)
(0.149253564794 -8.58291108202e-07 0)
(0.149253557018 -9.10150403884e-07 0)
(0.149253551439 -9.64740768429e-07 0)
(0.149253546402 -1.02163271115e-06 0)
(0.149253540281 -1.08068225048e-06 0)
(0.149253534305 -1.14280270484e-06 0)
(0.14925352942 -1.20805468649e-06 0)
(0.149253525421 -1.27554358357e-06 0)
(0.14925352237 -1.34511713023e-06 0)
(0.149253519448 -1.41724866541e-06 0)
(0.149253515696 -1.49276177595e-06 0)
(0.149253511719 -1.57240401007e-06 0)
(0.149253507707 -1.6555061103e-06 0)
(0.149253503432 -1.74084924249e-06 0)
(0.149253500016 -1.82809918968e-06 0)
(0.149253498767 -1.91773225535e-06 0)
(0.149253499884 -2.01075926954e-06 0)
(0.14925350254 -2.10751374036e-06 0)
(0.149253506216 -2.2065561991e-06 0)
(0.149253513143 -2.30715953369e-06 0)
(0.149253525566 -2.41012930385e-06 0)
(0.149253541922 -2.51545714655e-06 0)
(0.149253561912 -2.62305595471e-06 0)
(0.149253587631 -2.73250770122e-06 0)
(0.149253620311 -2.84261354867e-06 0)
(0.149253663545 -2.95424135043e-06 0)
(0.14925372182 -3.06925175331e-06 0)
(0.149253796682 -3.18745005885e-06 0)
(0.149253891152 -3.30855067564e-06 0)
(0.14925401083 -3.43340302101e-06 0)
(0.149254160234 -3.56484395128e-06 0)
(0.149254346918 -3.71064029774e-06 0)
(0.149254581356 -3.87153139897e-06 0)
(0.149254873367 -4.04266416677e-06 0)
(0.149255236687 -4.22373452178e-06 0)
(0.149255689016 -4.41641388618e-06 0)
(0.149256249734 -4.62013806112e-06 0)
(0.149256944391 -4.83464499981e-06 0)
(0.149257806094 -5.06216860851e-06 0)
(0.149258874454 -5.30527645061e-06 0)
(0.149260199199 -5.56545735823e-06 0)
(0.149261841619 -5.84438095286e-06 0)
(0.149263875241 -6.14628893022e-06 0)
(0.149266394651 -6.48012339559e-06 0)
(0.14926953289 -6.87202752418e-06 0)
(0.149273450677 -7.39633397714e-06 0)
(0.149278288191 -8.13257246991e-06 0)
(0.149284242467 -9.02275195231e-06 0)
(0.149291604646 -1.00385351841e-05 0)
(0.149300717605 -1.11781819851e-05 0)
(0.149312002907 -1.24545727477e-05 0)
(0.149325982564 -1.38900513166e-05 0)
(0.149343297935 -1.55117035195e-05 0)
(0.149364743455 -1.73525998435e-05 0)
(0.149391306672 -1.94537010664e-05 0)
(0.149424212264 -2.18676095141e-05 0)
(0.149464982819 -2.4663882884e-05 0)
(0.149515508137 -2.79265165467e-05 0)
(0.149578135335 -3.1758958013e-05 0)
(0.149655788228 -3.62969026593e-05 0)
(0.149752109207 -4.17131425021e-05 0)
(0.149871639331 -4.82213509224e-05 0)
(0.150020059744 -5.60964575447e-05 0)
(0.150204490628 -6.56936858881e-05 0)
(0.150433871394 -7.7463977381e-05 0)
(0.150719477564 -9.19865603557e-05 0)
(0.151075594685 -0.000110014113717 0)
(0.151520411732 -0.000132527339931 0)
(0.152077245606 -0.000160808620407 0)
(0.15277623778 -0.00019655355886 0)
(0.153656747408 -0.000242021690724 0)
(0.154770853278 -0.000300261408423 0)
(0.156188742529 -0.000375537240593 0)
(0.158007813298 -0.000474538087915 0)
(0.160370930672 -0.000610788244043 0)
(0.163509888921 -0.000821667411156 0)
(0.167854715224 -0.00123129977476 0)
(0.174371510358 -0.00228031388495 0)
(0.185942070924 -0.0056122844606 0)
(0.21133809846 -0.0174829579169 0)
(0.267387941724 -0.0611733313577 0)
(0.977201171945 0.296997122654 0)
(0.962687460593 0.250387270704 0)
(0.820646033102 0.15858101078 0)
(0.697824895124 0.0957993482928 0)
(0.610491665036 0.0579132773882 0)
(0.549133314021 0.0359038513246 0)
(0.506705982154 0.0229309373725 0)
(0.47766201551 0.0149788802057 0)
(0.457815295889 0.00990973184485 0)
(0.444277671851 0.00658330919958 0)
(0.435087223335 0.00436198659455 0)
(0.428895554829 0.00286682563368 0)
(0.424768039236 0.00185971967922 0)
(0.422054232396 0.00118457231952 0)
(0.420301052797 0.000736111103745 0)
(0.419193680777 0.000442159477728 0)
(0.418514611092 0.000252859652736 0)
(0.418114833908 0.000133738102179 0)
(0.417893374243 6.10510264991e-05 0)
(0.417782730586 1.85761326979e-05 0)
(0.417738473217 -4.63594211027e-06 0)
(0.417731937049 -1.60113801761e-05 0)
(0.417745153948 -2.03066848428e-05 0)
(0.417767178209 -2.06090688966e-05 0)
(0.417791628395 -1.88560534604e-05 0)
(0.417815042705 -1.62215392224e-05 0)
(0.417835761803 -1.33838643645e-05 0)
(0.417853193838 -1.07062813984e-05 0)
(0.417867342602 -8.35774384093e-06 0)
(0.417878514629 -6.39391081691e-06 0)
(0.417887141304 -4.8075936278e-06 0)
(0.417893675775 -3.55945174159e-06 0)
(0.417898542367 -2.59887834988e-06 0)
(0.417902111907 -1.87336119448e-06 0)
(0.41790469202 -1.33290307891e-06 0)
(0.417906531368 -9.35454790127e-07 0)
(0.417907826144 -6.47711341493e-07 0)
(0.417908724575 -4.41577891856e-07 0)
(0.417909337498 -2.95120359747e-07 0)
(0.417909749324 -1.93306097432e-07 0)
(0.417910020797 -1.23854645137e-07 0)
(0.417910193882 -7.72430945633e-08 0)
(0.417910300203 -4.87479268005e-08 0)
(0.417910362954 -3.33098407874e-08 0)
(0.417910396802 -2.53427930247e-08 0)
(0.417910412123 -2.21051612279e-08 0)
(0.417910415893 -2.07216396533e-08 0)
(0.417910412587 -1.89148408405e-08 0)
(0.417910406385 -1.80008243802e-08 0)
(0.417910399162 -1.88022908644e-08 0)
(0.417910390709 -2.02611710515e-08 0)
(0.417910382044 -2.21443511368e-08 0)
(0.41791037412 -2.41339056953e-08 0)
(0.417910365955 -2.50763335226e-08 0)
(0.417910357825 -2.57691196178e-08 0)
(0.417910350838 -2.78682503163e-08 0)
(0.417910343722 -3.09933353088e-08 0)
(0.417910335034 -3.4182359304e-08 0)
(0.417910324816 -3.70680753573e-08 0)
(0.417910313571 -3.987211222e-08 0)
(0.41791030219 -4.3215138553e-08 0)
(0.417910291049 -4.68949983834e-08 0)
(0.417910279249 -5.00406440266e-08 0)
(0.417910266358 -5.30016024597e-08 0)
(0.417910252733 -5.70425353916e-08 0)
(0.417910237963 -6.20839072773e-08 0)
(0.417910221194 -6.67869338679e-08 0)
(0.41791020274 -7.06577262559e-08 0)
(0.417910184267 -7.47571731271e-08 0)
(0.417910166257 -7.94829495356e-08 0)
(0.417910147514 -8.40622990742e-08 0)
(0.417910128314 -8.90887853749e-08 0)
(0.417910109346 -9.50102280708e-08 0)
(0.41791008898 -1.00390821643e-07 0)
(0.417910067264 -1.05242082247e-07 0)
(0.417910046687 -1.11046563861e-07 0)
(0.417910026653 -1.17340302541e-07 0)
(0.417910004988 -1.23694745658e-07 0)
(0.417909982009 -1.30944591755e-07 0)
(0.417909958402 -1.38052892126e-07 0)
(0.417909935073 -1.44099556016e-07 0)
(0.417909913893 -1.51013417446e-07 0)
(0.417909893568 -1.59629674114e-07 0)
(0.41790987114 -1.68763788485e-07 0)
(0.417909847681 -1.78361055279e-07 0)
(0.417909825901 -1.88570211663e-07 0)
(0.41790980609 -1.98584934004e-07 0)
(0.417909787436 -2.08497904211e-07 0)
(0.417909768421 -2.18673755574e-07 0)
(0.41790974772 -2.29138644477e-07 0)
(0.417909726944 -2.40947882293e-07 0)
(0.417909708032 -2.5454774708e-07 0)
(0.417909691132 -2.68707514374e-07 0)
(0.41790967686 -2.82422305979e-07 0)
(0.41790966603 -2.96304269214e-07 0)
(0.417909658976 -3.12454499452e-07 0)
(0.41790965682 -3.31865878725e-07 0)
(0.417909660458 -3.52078502713e-07 0)
(0.417909671531 -3.72548300061e-07 0)
(0.417909693557 -3.97655566983e-07 0)
(0.417909727573 -4.28667430442e-07 0)
(0.417909774928 -4.649736673e-07 0)
(0.417909839991 -5.06948760441e-07 0)
(0.417909925407 -5.52500448009e-07 0)
(0.417910035858 -6.01012461289e-07 0)
(0.417910180987 -6.55657222624e-07 0)
(0.417910369072 -7.17999541556e-07 0)
(0.417910608231 -7.88135894274e-07 0)
(0.417910908868 -8.66127354717e-07 0)
(0.417911278995 -9.48444132971e-07 0)
(0.417911740109 -1.02843948271e-06 0)
(0.417912327715 -1.11065358185e-06 0)
(0.417913069949 -1.20290967777e-06 0)
(0.417913997016 -1.31108123825e-06 0)
(0.41791515406 -1.44305983906e-06 0)
(0.417916595448 -1.60428467896e-06 0)
(0.417918385568 -1.79998849963e-06 0)
(0.417920606731 -2.03988218951e-06 0)
(0.417923363422 -2.33647168065e-06 0)
(0.41792678525 -2.70441639816e-06 0)
(0.417931028558 -3.16260243533e-06 0)
(0.417936282474 -3.7351539305e-06 0)
(0.417942779994 -4.45287175077e-06 0)
(0.417950803958 -5.36530012505e-06 0)
(0.417960711691 -6.56623567384e-06 0)
(0.417973004091 -8.16867121023e-06 0)
(0.417988293486 -1.02048273732e-05 0)
(0.418007273683 -1.27440883576e-05 0)
(0.418030806081 -1.58892613401e-05 0)
(0.418059968136 -1.97755909991e-05 0)
(0.418096103713 -2.45790981116e-05 0)
(0.418140876433 -3.05179071528e-05 0)
(0.418196347273 -3.78590494209e-05 0)
(0.418265073052 -4.69314337561e-05 0)
(0.418350221486 -5.81432864837e-05 0)
(0.418455730517 -7.20071379629e-05 0)
(0.418586494903 -8.91582375056e-05 0)
(0.418748590079 -0.000110384624803 0)
(0.418949574518 -0.000136676805278 0)
(0.419198870712 -0.000169279492426 0)
(0.419508228691 -0.000209751082764 0)
(0.419892332391 -0.000260063828295 0)
(0.42036958507 -0.00032273108068 0)
(0.420963103863 -0.000400956832098 0)
(0.421702036169 -0.00049885970719 0)
(0.422623309571 -0.000621790122605 0)
(0.423773974404 -0.000776766909014 0)
(0.42521441191 -0.000973114317361 0)
(0.427022855207 -0.00122343906837 0)
(0.42930194905 -0.00154518056609 0)
(0.432188667134 -0.00196325369879 0)
(0.435870114566 -0.00251500667939 0)
(0.44061034688 -0.00326074127096 0)
(0.446799744156 -0.00430899770087 0)
(0.45505247503 -0.00588369167089 0)
(0.466393222553 -0.00850960802457 0)
(0.482608483282 -0.0135270267372 0)
(0.507141897138 -0.0245773538329 0)
(0.546710690832 -0.0518420365434 0)
(0.605705435299 -0.120054685047 0)
(1.03387038669 0.239240962747 0)
(1.08314081573 0.293634381915 0)
(1.0329443771 0.23913193296 0)
(0.954408208063 0.17453901927 0)
(0.880112581031 0.121551465595 0)
(0.818677613221 0.0832335938005 0)
(0.771466788059 0.056825812858 0)
(0.736691565281 0.0388125743059 0)
(0.711672093043 0.0264913181291 0)
(0.693953120822 0.0180235762259 0)
(0.681568194176 0.0121876200466 0)
(0.673018594943 0.00816650311395 0)
(0.667192228718 0.0054055655805 0)
(0.663277748307 0.00352226298072 0)
(0.660690312118 0.00224961234236 0)
(0.659012738201 0.00140002798043 0)
(0.657950529638 0.000841455434327 0)
(0.657298074561 0.000481122084246 0)
(0.656913529472 0.000254193101172 0)
(0.656700337938 0.000115710274938 0)
(0.656593730517 3.47964720551e-05 0)
(0.656551018652 -9.46485547655e-06 0)
(0.656544676841 -3.10086686075e-05 0)
(0.656557374947 -3.90719781006e-05 0)
(0.656578558517 -3.95444398308e-05 0)
(0.65660208178 -3.6117094027e-05 0)
(0.656624610881 -3.1027966392e-05 0)
(0.656644548089 -2.55672302382e-05 0)
(0.656661322649 -2.04230426726e-05 0)
(0.656674937861 -1.59153932367e-05 0)
(0.656685688643 -1.21486239575e-05 0)
(0.656693988601 -9.10625665616e-06 0)
(0.656700274617 -6.71264884114e-06 0)
(0.656704956617 -4.87004353302e-06 0)
(0.656708390643 -3.47696280124e-06 0)
(0.656710872378 -2.44012766789e-06 0)
(0.65671264162 -1.68125631458e-06 0)
(0.656713885545 -1.13508265166e-06 0)
(0.656714745996 -7.47434148834e-07 0)
(0.656715331915 -4.770735541e-07 0)
(0.656715724816 -2.92759728131e-07 0)
(0.656715982633 -1.69581217719e-07 0)
(0.656716147583 -8.88569462027e-08 0)
(0.656716249991 -3.74232160925e-08 0)
(0.656716309955 -5.31494029012e-09 0)
(0.656716342752 1.39047169697e-08 0)
(0.656716359198 2.46764843411e-08 0)
(0.656716363696 3.12812210537e-08 0)
(0.656716359727 3.52168647445e-08 0)
(0.656716351706 3.72919585724e-08 0)
(0.656716341611 3.9205298518e-08 0)
(0.656716330794 4.17428682834e-08 0)
(0.65671632088 4.45601471154e-08 0)
(0.656716311039 4.83455661625e-08 0)
(0.656716300109 5.35149139509e-08 0)
(0.656716288956 5.83915094305e-08 0)
(0.656716277794 6.21951427481e-08 0)
(0.656716266063 6.55206430694e-08 0)
(0.656716253512 6.93508298058e-08 0)
(0.656716239862 7.44004548567e-08 0)
(0.65671622564 8.05094340769e-08 0)
(0.656716211592 8.69122344106e-08 0)
(0.656716196963 9.3742341666e-08 0)
(0.65671618061 1.01217751534e-07 0)
(0.656716162722 1.08614672808e-07 0)
(0.656716144125 1.15467401611e-07 0)
(0.656716124798 1.22537647926e-07 0)
(0.656716103895 1.3102283947e-07 0)
(0.656716081755 1.40722683381e-07 0)
(0.656716059447 1.50756276913e-07 0)
(0.656716036217 1.61511983772e-07 0)
(0.656716011772 1.73163271763e-07 0)
(0.656715987615 1.84466610045e-07 0)
(0.656715963008 1.9620495555e-07 0)
(0.656715936662 2.10144716097e-07 0)
(0.656715910204 2.25346008154e-07 0)
(0.656715883932 2.40641717451e-07 0)
(0.656715856062 2.56364243723e-07 0)
(0.656715827431 2.72466383136e-07 0)
(0.656715799279 2.89831444278e-07 0)
(0.656715770596 3.09874519296e-07 0)
(0.656715741678 3.30781752202e-07 0)
(0.656715713224 3.5029794934e-07 0)
(0.656715683954 3.69761957327e-07 0)
(0.656715653935 3.91011933113e-07 0)
(0.656715625088 4.13998593356e-07 0)
(0.656715597955 4.38307936545e-07 0)
(0.656715572283 4.6322796774e-07 0)
(0.656715547457 4.88711745513e-07 0)
(0.65671552169 5.16395149703e-07 0)
(0.656715494958 5.46361817429e-07 0)
(0.656715469485 5.768809245e-07 0)
(0.656715447209 6.07749685884e-07 0)
(0.656715429221 6.39894903328e-07 0)
(0.656715415439 6.73345736759e-07 0)
(0.6567154059 7.06992826689e-07 0)
(0.65671540334 7.39636449161e-07 0)
(0.656715409647 7.72675843732e-07 0)
(0.656715424067 8.08500780108e-07 0)
(0.656715450137 8.46761286025e-07 0)
(0.656715492681 8.85874272183e-07 0)
(0.656715554743 9.24330615015e-07 0)
(0.656715642821 9.58849634504e-07 0)
(0.656715763189 9.8862606521e-07 0)
(0.656715921233 1.01523602209e-06 0)
(0.65671612722 1.03641758599e-06 0)
(0.65671639378 1.04849721765e-06 0)
(0.656716735552 1.04898394604e-06 0)
(0.65671717397 1.03386204742e-06 0)
(0.656717734818 1.00166151766e-06 0)
(0.656718440522 9.56272257583e-07 0)
(0.656719316272 8.88859366152e-07 0)
(0.656720401668 7.84860032137e-07 0)
(0.656721748011 6.33556339245e-07 0)
(0.656723420209 4.19941352572e-07 0)
(0.656725498402 1.24731926182e-07 0)
(0.65672807771 -2.73492176435e-07 0)
(0.656731275752 -8.01120439879e-07 0)
(0.656735239839 -1.49143004781e-06 0)
(0.656740152836 -2.38771298225e-06 0)
(0.656746239527 -3.54475825075e-06 0)
(0.656753777323 -5.02746055101e-06 0)
(0.656763111948 -6.91445223839e-06 0)
(0.656774673743 -9.30565775055e-06 0)
(0.656788990014 -1.23156339723e-05 0)
(0.656806711469 -1.60831808926e-05 0)
(0.656828648982 -2.08269270524e-05 0)
(0.656855810896 -2.68078711609e-05 0)
(0.656889448616 -3.43364955156e-05 0)
(0.656931106952 -4.37915409008e-05 0)
(0.656982700452 -5.56472207971e-05 0)
(0.657046601952 -7.04929535396e-05 0)
(0.657125752743 -8.90577078913e-05 0)
(0.657223800704 -0.000112246844171 0)
(0.657345263731 -0.000141180464371 0)
(0.657495751909 -0.00017725145709 0)
(0.65768223769 -0.0002221987731 0)
(0.657913377021 -0.000278188273651 0)
(0.658199930676 -0.000347922468127 0)
(0.65855530318 -0.000434790337665 0)
(0.658996200547 -0.000543049173393 0)
(0.659543473642 -0.000678066808946 0)
(0.660223218985 -0.000846654232281 0)
(0.661068174865 -0.00105749528596 0)
(0.662119537884 -0.00132173984768 0)
(0.663429369901 -0.00165383909709 0)
(0.665063812643 -0.00207273523646 0)
(0.667107448236 -0.00260360641798 0)
(0.669669363957 -0.00328052725947 0)
(0.672891821814 -0.00415072945834 0)
(0.676963070253 -0.0052818242375 0)
(0.682136963411 -0.00677488825229 0)
(0.688764054632 -0.0087899603144 0)
(0.697342476855 -0.0115991648896 0)
(0.708602185846 -0.0157036218021 0)
(0.723629587065 -0.022096411098 0)
(0.743993376124 -0.0328331194766 0)
(0.771822848588 -0.0521960315881 0)
(0.809340794784 -0.0888920139582 0)
(0.852776461645 -0.157637829774 0)
(1.03384128316 0.17130694665 0)
(1.10231584834 0.275556748345 0)
(1.11663620885 0.266312372532 0)
(1.09207924909 0.219892602524 0)
(1.05195419601 0.168210318817 0)
(1.01022221136 0.123615337058 0)
(0.973507714081 0.0888850597211 0)
(0.943885939669 0.0630494628987 0)
(0.921162792182 0.0442607986263 0)
(0.904299816737 0.0307744347149 0)
(0.892086130576 0.0211830159065 0)
(0.883411231814 0.0144172997966 0)
(0.877355064357 0.00968544353782 0)
(0.873196220923 0.0064075891039 0)
(0.870388071351 0.00416172515107 0)
(0.868526266773 0.00264232231797 0)
(0.86731730903 0.0016294765911 0)
(0.866551594889 0.000966023308928 0)
(0.866081667537 0.000540570294163 0)
(0.865805310557 0.000274924407846 0)
(0.865652736885 0.000114789662083 0)
(0.865577106086 2.29544077049e-05 0)
(0.865547494776 -2.57271042685e-05 0)
(0.8655439577 -4.804723004e-05 0)
(0.865554005627 -5.49272529621e-05 0)
(0.865570008708 -5.33288185451e-05 0)
(0.865587545171 -4.75758856338e-05 0)
(0.865604234276 -4.02489504223e-05 0)
(0.865618947088 -3.28021580654e-05 0)
(0.865631292982 -2.59841053423e-05 0)
(0.865641293826 -2.01174622735e-05 0)
(0.86564917729 -1.5277250673e-05 0)
(0.865655254316 -1.14055488368e-05 0)
(0.865659851605 -8.38426851792e-06 0)
(0.86566327217 -6.07490769206e-06 0)
(0.865665777298 -4.34033135156e-06 0)
(0.865667585375 -3.05871710848e-06 0)
(0.865668872755 -2.12707026575e-06 0)
(0.865669775539 -1.45905459202e-06 0)
(0.865670398738 -9.86366746064e-07 0)
(0.8656708227 -6.5735134964e-07 0)
(0.865671105626 -4.32109314028e-07 0)
(0.865671289875 -2.80714197005e-07 0)
(0.865671406742 -1.81502935317e-07 0)
(0.865671477089 -1.17660473385e-07 0)
(0.865671515775 -7.75112249634e-08 0)
(0.865671534621 -5.44164969417e-08 0)
(0.865671540503 -4.25575555508e-08 0)
(0.865671538167 -3.68437006669e-08 0)
(0.865671531851 -3.46963571606e-08 0)
(0.865671522898 -3.42209281781e-08 0)
(0.865671511865 -3.43467429582e-08 0)
(0.865671500517 -3.6040602774e-08 0)
(0.865671489159 -3.91870911879e-08 0)
(0.865671476496 -4.27118467506e-08 0)
(0.865671462604 -4.69952295256e-08 0)
(0.865671447859 -5.29072622341e-08 0)
(0.865671432184 -5.97944673295e-08 0)
(0.865671415741 -6.7236266276e-08 0)
(0.865671398258 -7.4410661702e-08 0)
(0.865671379673 -8.0712513599e-08 0)
(0.865671360718 -8.70077046991e-08 0)
(0.865671341327 -9.39810062464e-08 0)
(0.865671320339 -1.01237008545e-07 0)
(0.865671297261 -1.08571545614e-07 0)
(0.865671272568 -1.16551570091e-07 0)
(0.865671246754 -1.25531810041e-07 0)
(0.865671219471 -1.34711901304e-07 0)
(0.865671190763 -1.43478971829e-07 0)
(0.865671161671 -1.52569535885e-07 0)
(0.865671131908 -1.61879726119e-07 0)
(0.865671100444 -1.70461325362e-07 0)
(0.865671068333 -1.79696319236e-07 0)
(0.865671036051 -1.9056503632e-07 0)
(0.865671002203 -2.01441283907e-07 0)
(0.865670967341 -2.12040017246e-07 0)
(0.865670932133 -2.23386627587e-07 0)
(0.865670895069 -2.35010404633e-07 0)
(0.865670856802 -2.47119338544e-07 0)
(0.865670819372 -2.60879309948e-07 0)
(0.865670781565 -2.75500413931e-07 0)
(0.865670742125 -2.90409124423e-07 0)
(0.865670702095 -3.06766919407e-07 0)
(0.865670661748 -3.24547358749e-07 0)
(0.865670621168 -3.42808589133e-07 0)
(0.865670581575 -3.61603199785e-07 0)
(0.865670543094 -3.81072005715e-07 0)
(0.865670505495 -4.01850155295e-07 0)
(0.865670469372 -4.25227564905e-07 0)
(0.865670433685 -4.50675266754e-07 0)
(0.865670397273 -4.77058917434e-07 0)
(0.865670361697 -5.04699342307e-07 0)
(0.865670329705 -5.34391321549e-07 0)
(0.86567030311 -5.67207985003e-07 0)
(0.865670281939 -6.04008477878e-07 0)
(0.865670265833 -6.44599149394e-07 0)
(0.865670257932 -6.90099872827e-07 0)
(0.865670262696 -7.42036766966e-07 0)
(0.865670282139 -7.99215152334e-07 0)
(0.865670318512 -8.61051238659e-07 0)
(0.865670373368 -9.29343480416e-07 0)
(0.865670448665 -1.0046787809e-06 0)
(0.865670552036 -1.08948563193e-06 0)
(0.865670693107 -1.18765730158e-06 0)
(0.865670879753 -1.30103291697e-06 0)
(0.865671123117 -1.43293698501e-06 0)
(0.865671437532 -1.58819317708e-06 0)
(0.865671838388 -1.77150676961e-06 0)
(0.865672346636 -1.99207822685e-06 0)
(0.865672988078 -2.26299761236e-06 0)
(0.865673792421 -2.60055664357e-06 0)
(0.865674799336 -3.01911475473e-06 0)
(0.865676058525 -3.53347149882e-06 0)
(0.865677627386 -4.16190059412e-06 0)
(0.865679578337 -4.92883837063e-06 0)
(0.865682003105 -5.86825578343e-06 0)
(0.865685013134 -7.02245940136e-06 0)
(0.865688746711 -8.44277192189e-06 0)
(0.86569337588 -1.01919298395e-05 0)
(0.865699113333 -1.23483394577e-05 0)
(0.865706222432 -1.50098552763e-05 0)
(0.865715029099 -1.82964893436e-05 0)
(0.865725935256 -2.23571317289e-05 0)
(0.865739440658 -2.73837748179e-05 0)
(0.865756167058 -3.36181907986e-05 0)
(0.865776879407 -4.13475122232e-05 0)
(0.865802520888 -5.09207764614e-05 0)
(0.865834264981 -6.27705309529e-05 0)
(0.865873570474 -7.743853058e-05 0)
(0.865922238713 -9.55985391829e-05 0)
(0.865982500984 -0.000118088520679 0)
(0.866057124357 -0.000145948353445 0)
(0.866149536652 -0.000180470711128 0)
(0.866263989465 -0.000223267071364 0)
(0.866405750554 -0.000276334955431 0)
(0.866581353117 -0.000342155701015 0)
(0.866798910556 -0.000423827089114 0)
(0.867068495138 -0.000525212579752 0)
(0.867402616356 -0.000651132739303 0)
(0.867816835599 -0.000807628651148 0)
(0.868330526238 -0.00100229010942 0)
(0.868967828401 -0.00124467431593 0)
(0.869758886141 -0.00154687940537 0)
(0.870741416278 -0.00192430356137 0)
(0.871962723488 -0.00239666828273 0)
(0.873482329905 -0.00298944333262 0)
(0.875375435535 -0.00373587004077 0)
(0.877737525659 -0.00467990873292 0)
(0.880690603102 -0.00588066876031 0)
(0.884391764291 -0.00741933764344 0)
(0.889045212866 -0.00941055761459 0)
(0.894919278809 -0.0120220263913 0)
(0.90237042886 -0.015509969019 0)
(0.911875924036 -0.0202859932783 0)
(0.92407318398 -0.0270462507364 0)
(0.939784243589 -0.0370203096918 0)
(0.959938671767 -0.052417239134 0)
(0.985224644592 -0.0770902060589 0)
(1.01501829695 -0.117178608523 0)
(1.04333723655 -0.179937503505 0)
(1.02388346205 0.119321983231 0)
(1.08875436472 0.231514425344 0)
(1.13660483183 0.252868941485 0)
(1.1540627309 0.22890504625 0)
(1.15000112395 0.188337387214 0)
(1.13537623373 0.146577292847 0)
(1.1175777722 0.110164820074 0)
(1.10059198936 0.080837606686 0)
(1.08612240313 0.0582502015689 0)
(1.07458761006 0.0413417866671 0)
(1.0657867891 0.0289362843575 0)
(1.05928156125 0.0199770219869 0)
(1.05459132541 0.0135949319318 0)
(1.05128026998 0.00910742886248 0)
(1.04898736515 0.00599313391676 0)
(1.04742905625 0.00386144100782 0)
(1.04639046259 0.00242413532652 0)
(1.04571299378 0.00147134616455 0)
(1.04528206227 0.000852133495451 0)
(1.04501638112 0.000459260580144 0)
(1.04485925948 0.000217487387654 0)
(1.04477183159 7.47160211262e-05 0)
(1.04472785241 -4.64814387155e-06 0)
(1.04470998751 -4.44477604625e-05 0)
(1.04470706176 -6.05378833906e-05 0)
(1.04471198448 -6.30954367949e-05 0)
(1.044720424 -5.85461041629e-05 0)
(1.04472986455 -5.08133525528e-05 0)
(1.04473893877 -4.21822620547e-05 0)
(1.04474698519 -3.38947104281e-05 0)
(1.04475376401 -2.65497456606e-05 0)
(1.04475927134 -2.03639329786e-05 0)
(1.04476362182 -1.53385974759e-05 0)
(1.04476698148 -1.13676073087e-05 0)
(1.04476952733 -8.30040330933e-06 0)
(1.04477142316 -5.97576175484e-06 0)
(1.04477281233 -4.24282186327e-06 0)
(1.04477381625 -2.9713428374e-06 0)
(1.04477453124 -2.05171655932e-06 0)
(1.04477503218 -1.39527874115e-06 0)
(1.04477537799 -9.33704873547e-07 0)
(1.04477561265 -6.14017720911e-07 0)
(1.04477576827 -3.95599388318e-07 0)
(1.04477586933 -2.48985621825e-07 0)
(1.04477593239 -1.51937517809e-07 0)
(1.04477596855 -8.78989062923e-08 0)
(1.04477598726 -4.66287466591e-08 0)
(1.04477599439 -2.07998126001e-08 0)
(1.04477599306 -4.71445085868e-09 0)
(1.04477598672 4.3280547633e-09 0)
(1.04477597743 8.90671871079e-09 0)
(1.04477596527 1.22073672607e-08 0)
(1.04477595182 1.47818346537e-08 0)
(1.04477593841 1.57248793011e-08 0)
(1.04477592377 1.55514875939e-08 0)
(1.04477590719 1.50135941223e-08 0)
(1.04477588959 1.44323233346e-08 0)
(1.04477587156 1.39341159976e-08 0)
(1.04477585306 1.33269628232e-08 0)
(1.04477583404 1.27815118408e-08 0)
(1.04477581392 1.29413375798e-08 0)
(1.04477579266 1.35235139058e-08 0)
(1.04477577054 1.36936291e-08 0)
(1.04477574706 1.35957096315e-08 0)
(1.04477572138 1.37715281909e-08 0)
(1.04477569356 1.42282701449e-08 0)
(1.04477566466 1.46456555021e-08 0)
(1.04477563484 1.54380415683e-08 0)
(1.04477560326 1.73100238785e-08 0)
(1.04477557067 1.96149183572e-08 0)
(1.04477553777 2.20367068138e-08 0)
(1.04477550312 2.55907998801e-08 0)
(1.04477546654 2.97096730528e-08 0)
(1.04477542936 3.28714612432e-08 0)
(1.04477539106 3.59857313289e-08 0)
(1.04477535148 3.99237577167e-08 0)
(1.04477531153 4.38267675546e-08 0)
(1.04477527004 4.81505452114e-08 0)
(1.04477522632 5.33923679598e-08 0)
(1.04477518238 5.79744523973e-08 0)
(1.04477513851 6.16369118353e-08 0)
(1.04477509313 6.57291761855e-08 0)
(1.04477504643 7.03266821516e-08 0)
(1.04477499914 7.51367467448e-08 0)
(1.04477495154 8.02045971713e-08 0)
(1.04477490469 8.49939784048e-08 0)
(1.04477485869 8.97567769728e-08 0)
(1.04477481264 9.51111151256e-08 0)
(1.0447747672 9.97310913438e-08 0)
(1.04477472263 1.02616979553e-07 0)
(1.04477467814 1.04785674422e-07 0)
(1.0447746344 1.07165108364e-07 0)
(1.04477459319 1.09180380226e-07 0)
(1.04477455607 1.08750205569e-07 0)
(1.04477452417 1.04245065998e-07 0)
(1.04477449766 9.64805523732e-08 0)
(1.0447744782 8.51110491966e-08 0)
(1.04477446965 6.70148885099e-08 0)
(1.0447744738 4.05843272979e-08 0)
(1.04477449329 2.69024781447e-09 0)
(1.044774533 -5.06094533283e-08 0)
(1.04477459649 -1.19252192724e-07 0)
(1.04477468974 -2.04159478044e-07 0)
(1.04477482203 -3.10584166947e-07 0)
(1.04477500192 -4.44067478511e-07 0)
(1.04477524085 -6.10923806878e-07 0)
(1.04477555459 -8.19299323985e-07 0)
(1.04477595915 -1.07738950407e-06 0)
(1.04477647563 -1.39689893659e-06 0)
(1.04477713197 -1.79258220347e-06 0)
(1.04477795863 -2.27961223958e-06 0)
(1.04477899393 -2.87844550483e-06 0)
(1.04478028916 -3.61779078416e-06 0)
(1.04478190642 -4.53045469355e-06 0)
(1.04478392146 -5.6552059682e-06 0)
(1.04478642822 -7.04261618986e-06 0)
(1.04478954192 -8.75520107115e-06 0)
(1.04479340662 -1.08689479619e-05 0)
(1.04479820149 -1.34776300968e-05 0)
(1.04480414733 -1.669725705e-05 0)
(1.04481151761 -2.0673008825e-05 0)
(1.04482065209 -2.55860018127e-05 0)
(1.04483196855 -3.16585832976e-05 0)
(1.04484598275 -3.91670650924e-05 0)
(1.0448633384 -4.84603886255e-05 0)
(1.04488483188 -5.99690887933e-05 0)
(1.04491144376 -7.42181119898e-05 0)
(1.0449443897 -9.18543915524e-05 0)
(1.04498518019 -0.000113684951153 0)
(1.04503568318 -0.000140711114634 0)
(1.04509821359 -0.000174172539479 0)
(1.04517564062 -0.000215606178244 0)
(1.04527151298 -0.000266920585826 0)
(1.04539023231 -0.000330491404696 0)
(1.04553725525 -0.00040926727944 0)
(1.04571934067 -0.000506909229509 0)
(1.04594487228 -0.000627979375618 0)
(1.04622425317 -0.000778166744596 0)
(1.04657038725 -0.000964566919331 0)
(1.04699929631 -0.00119605681675 0)
(1.04753089369 -0.00148377430855 0)
(1.04818993567 -0.00184172242071 0)
(1.04900723467 -0.00228758065029 0)
(1.05002119558 -0.00284378198338 0)
(1.05127975652 -0.00353895195901 0)
(1.05284286118 -0.004409883846 0)