/*--------------------------------*- C++ -*----------------------------------*\
| =========                 |                                                 |
| \\      /  F ield         | OpenFOAM: The Open Source CFD Toolbox           |
|  \\    /   O peration     | Version:  2106                                  |
|   \\  /    A nd           | Website:  www.openfoam.com                      |
|    \\/     M anipulation  |                                                 |
\*---------------------------------------------------------------------------*/
FoamFile
{
    version     2.0;
    format      ascii;
    arch        "LSB;label=32;scalar=64";
    class       surfaceScalarField;
    location    "0.07";
    object      phi;
}
// * * * * * * * * * * * * * * * * * * * * * * * * * * * * * * * * * * * * * //

dimensions      [0 3 -1 0 0 0 0];

oriented        oriented;

internalField   nonuniform List<scalar> 
22100
(
3.38461106523e-05
1.61538893469e-05
2.24571797364e-05
1.1388931451e-05
1.62584985926e-05
6.19868157943e-06
1.27977051336e-05
3.46079386633e-06
1.08045788514e-05
1.99312665509e-06
9.60458109214e-06
1.19999806998e-06
8.85144712078e-06
7.53134190378e-07
8.36472635624e-06
4.8672089106e-07
8.04510732033e-06
3.19619101593e-07
7.83419434613e-06
2.10913028065e-07
7.69553851189e-06
1.38655907469e-07
7.60538294387e-06
9.01556511891e-08
7.54782731312e-06
5.75556837973e-08
7.51207838556e-06
3.57489115906e-08
7.49076797756e-06
2.13103152951e-08
7.47886587269e-06
1.19019559145e-08
7.47294093236e-06
5.92476282645e-09
7.47060230909e-06
2.33842047439e-09
7.47036989728e-06
2.3216465252e-10
7.47137508902e-06
-1.00549864781e-09
7.4729708132e-06
-1.59608073808e-09
7.47467582501e-06
-1.70538358544e-09
7.47626757251e-06
-1.59210141808e-09
7.47761958328e-06
-1.35234682309e-09
7.47876069774e-06
-1.14146088115e-09
7.47966869366e-06
-9.08378468899e-10
7.4803614649e-06
-6.93173997806e-10
7.4808709912e-06
-5.09883364798e-10
7.48123262074e-06
-3.6185688543e-10
7.48147999396e-06
-2.47419506316e-10
7.48164256992e-06
-1.62458952857e-10
7.48174469989e-06
-1.01932621251e-10
7.48180500472e-06
-6.01329225748e-11
7.48183606376e-06
-3.09895487745e-11
7.48184618495e-06
-1.01760871433e-11
7.48184449876e-06
1.53082780955e-12
7.48183660852e-06
7.67158886139e-12
7.48182547657e-06
1.08709052463e-11
7.48181283861e-06
1.2338591984e-11
7.48179962265e-06
1.28950372302e-11
7.48178624198e-06
1.30944353877e-11
7.48177284097e-06
1.32372245265e-11
7.48175941696e-06
1.34571974099e-11
7.48174586663e-06
1.37910392406e-11
7.48173200886e-06
1.42369090602e-11
7.48171760091e-06
1.48093296068e-11
7.48170232862e-06
1.55904035494e-11
7.48168578498e-06
1.67315932705e-11
7.48166744499e-06
1.84160617528e-11
7.48164660256e-06
2.08493845853e-11
7.48162237691e-06
2.41893742942e-11
7.48159376848e-06
2.85455809004e-11
7.48155972743e-06
3.39975496637e-11
7.48151919248e-06
4.05995564434e-11
7.48147109149e-06
4.83738811827e-11
7.48141437692e-06
5.72583986425e-11
7.48134817213e-06
6.70101661413e-11
7.48127201592e-06
7.71365367715e-11
7.48118617951e-06
8.68629714586e-11
7.48109273164e-06
9.44047104763e-11
7.48099750636e-06
9.60174898216e-11
7.48091260805e-06
8.54217441389e-11
7.4808495076e-06
6.32563121825e-11
7.48082560892e-06
2.36448104797e-11
7.48087815636e-06
-5.31479432234e-11
7.48106853703e-06
-1.91154496561e-10
7.48149681528e-06
-4.29040330052e-10
7.48232225657e-06
-8.26091395862e-10
7.48379470422e-06
-1.47296659823e-09
7.48628940967e-06
-2.49512591628e-09
7.49026966758e-06
-3.98062231607e-09
7.497091592e-06
-6.82224611897e-09
7.50844292266e-06
-1.13516194042e-08
7.5275675922e-06
-1.91249501212e-08
7.56236048093e-06
-3.47931417254e-08
7.63464481825e-06
-7.22845016726e-08
7.80838359565e-06
-1.73738811521e-07
8.28282097716e-06
-4.74437289517e-07
9.81954700451e-06
-1.5367258981e-06
-5.77032830612e-06
1.55898754027e-05
5.02175801333e-05
1.59363097627e-05
4.42440701372e-05
1.73624422844e-05
3.777944399e-05
1.26633084245e-05
3.26461125783e-05
8.59412590047e-06
2.89381734981e-05
5.70106625463e-06
2.63599631428e-05
3.77820881276e-06
2.45883395555e-05
2.52475803544e-06
2.33750810967e-05
1.69997952302e-06
2.25462995524e-05
1.14840079528e-06
2.19826112593e-05
7.74601479499e-07
2.16020273249e-05
5.19239988936e-07
2.1347879562e-05
3.4430348853e-07
2.11807498505e-05
2.24685343594e-07
2.10731197104e-05
1.43378865108e-07
2.1005771694e-05
8.86580465625e-08
2.0965321395e-05
5.23519115618e-08
2.09425068393e-05
2.87389276023e-08
2.09310553302e-05
1.37894693866e-08
2.09266997379e-05
4.58720959574e-09
2.09265457159e-05
-8.52095551496e-10
2.09282589091e-05
-3.30991751425e-09
2.09309483763e-05
-4.39547639288e-09
2.09339155629e-05
-4.55989633264e-09
2.09367772027e-05
-4.21461527866e-09
2.09392605773e-05
-3.62551152603e-09
2.09413079532e-05
-2.95644190732e-09
2.09429236053e-05
-2.30942006442e-09
2.09441517544e-05
-1.73840969885e-09
2.09450552446e-05
-1.26543948877e-09
2.09457014645e-05
-8.93483291793e-10
2.09461551783e-05
-6.15896261317e-10
2.09464771778e-05
-4.23691873672e-10
2.09466678826e-05
-2.50746554051e-10
2.09467744643e-05
-1.37664997719e-10
2.0946826455e-05
-6.24183552106e-11
2.09468465498e-05
-1.89261011873e-11
2.0946848358e-05
5.42116336913e-12
2.09468395928e-05
1.91305829261e-11
2.09468251362e-05
2.62688240346e-11
2.09468078942e-05
2.96881859572e-11
2.09467893833e-05
3.13690751945e-11
2.09467702536e-05
3.24462257396e-11
2.09467506116e-05
3.34962329979e-11
2.09467302214e-05
3.47835804586e-11
2.09467086699e-05
3.6422945866e-11
2.09466854979e-05
3.84954191552e-11
2.09466602514e-05
4.11597629021e-11
2.09466325042e-05
4.46285578031e-11
2.09466018783e-05
4.90743285598e-11
2.0946567959e-05
5.47286405786e-11
2.0946530307e-05
6.1775357371e-11
2.09464885355e-05
7.03160340222e-11
2.09464424006e-05
8.03412435321e-11
2.0946391896e-05
9.16745383151e-11
2.0946337422e-05
1.03868747782e-10
2.09462801025e-05
1.16021799431e-10
2.09462223758e-05
1.26450756227e-10
2.09461690348e-05
1.32239540501e-10
2.09461285313e-05
1.28975029039e-10
2.09461155104e-05
1.08718015172e-10
2.09461558404e-05
5.64984577986e-11
2.0946297352e-05
-5.59002310398e-11
2.09466123625e-05
-2.52222016002e-10
2.09472216573e-05
-5.86650641323e-10
2.09482538115e-05
-1.08656603599e-09
2.09498776024e-05
-1.81620303623e-09
2.09524717886e-05
-3.02433030252e-09
2.09566173877e-05
-4.97259845424e-09
2.09632387791e-05
-8.09510677508e-09
2.09738541871e-05
-1.31111935359e-08
2.09911271279e-05
-2.12541643751e-08
2.10193905573e-05
-3.50862209266e-08
2.10660928809e-05
-5.80544560216e-08
2.11452367152e-05
-9.82692389432e-08
2.1284399633e-05
-1.73956352835e-07
2.15399742053e-05
-3.27859151208e-07
2.20277614871e-05
-6.61525967682e-07
2.29784407404e-05
-1.42511629966e-06
2.47569530428e-05
-3.31523794271e-06
-7.57279319384e-06
2.65594181717e-05
5.35170955363e-05
1.2419214666e-05
5.29349465122e-05
1.79445919717e-05
4.96538336382e-05
1.59444218558e-05
4.58402613218e-05
1.2407698738e-05
4.24403902646e-05
9.1009377789e-06
3.97298976687e-05
6.48870179882e-06
3.76887605324e-05
4.56589548514e-06
3.62002497008e-05
3.18849061607e-06
3.51368319016e-05
2.21181882995e-06
3.43888030123e-05
1.52263057896e-06
3.38699147222e-05
1.03812842379e-06
3.35151361511e-05
6.99082089886e-07
3.32765065023e-05
4.63314885883e-07
3.3119140684e-05
3.00744466082e-07
3.30179305616e-05
1.89867889441e-07
3.29549772652e-05
1.15304901951e-07
3.29176484876e-05
6.60673691985e-08
3.28971121564e-05
3.43254097565e-08
3.28871790966e-05
1.4519811038e-08
3.28837401223e-05
2.58637400909e-09
3.28841279782e-05
-3.69829027252e-09
3.28863727915e-05
-6.64080498435e-09
3.28894042632e-05
-7.59191025836e-09
3.28925513015e-05
-7.36226322322e-09
3.28954468854e-05
-6.52177525386e-09
3.28979214398e-05
-5.43167960985e-09
3.28999251088e-05
-4.31365752571e-09
3.29014776492e-05
-3.2912938058e-09
3.2902634003e-05
-2.42187170669e-09
3.29034618499e-05
-1.72119417885e-09
3.29040279178e-05
-1.18172628281e-09
3.29043895201e-05
-7.85072735578e-10
3.29046504494e-05
-5.11552484093e-10
3.29048253812e-05
-3.12604872221e-10
3.29049195618e-05
-1.56739811007e-10
3.29049657702e-05
-6.54034374008e-11
3.29049830019e-05
-1.22028314001e-11
3.29049825324e-05
1.91097058674e-11
3.29049719332e-05
3.63525251116e-11
3.29049559755e-05
4.52228646845e-11
3.29049373378e-05
4.97977940306e-11
3.29049173313e-05
5.25247416807e-11
3.29048963978e-05
5.47612415039e-11
3.29048744677e-05
5.72037536203e-11
3.2904851227e-05
6.01753816411e-11
3.29048262854e-05
6.38557299309e-11
3.29047992176e-05
6.85014075635e-11
3.2904769651e-05
7.43274379314e-11
3.29047374559e-05
8.12800620992e-11
3.29047025832e-05
8.95186234919e-11
3.29046651109e-05
9.91379956066e-11
3.29046253552e-05
1.10055746937e-10
3.29045839853e-05
1.21935417994e-10
3.29045422106e-05
1.34029856771e-10
3.29045021459e-05
1.44912210376e-10
3.29044674771e-05
1.52013330345e-10
3.29044445787e-05
1.50876292375e-10
3.29044438068e-05
1.34572400403e-10
3.29044805828e-05
9.36291480026e-11
3.29045815988e-05
8.83068724338e-12
3.29047964671e-05
-1.57702561527e-10
3.29052117056e-05
-4.71033161173e-10
3.29058803534e-05
-9.21315532718e-10
3.29068622167e-05
-1.56935559547e-09
3.29084166591e-05
-2.64201823067e-09
3.29109559907e-05
-4.35653538366e-09
3.29150106974e-05
-7.07993194111e-09
3.29214438272e-05
-1.14064971927e-08
3.29316531487e-05
-1.83051061172e-08
3.29479480307e-05
-2.94066979233e-08
3.29742307933e-05
-4.75375127294e-08
3.30162602873e-05
-7.71162953197e-08
3.30846389253e-05
-1.26433663456e-07
3.31976795159e-05
-2.11310305293e-07
3.33868516487e-05
-3.63128776567e-07
3.37048686857e-05
-6.45876246272e-07
3.4230842336e-05
-1.18749949514e-06
3.50436800883e-05
-2.23795387276e-06
3.60191335319e-05
-4.29069125424e-06
-7.76865394229e-06
3.62149943224e-05
5.35105644813e-05
8.90865055044e-06
5.55742266472e-05
1.58809303774e-05
5.52425299302e-05
1.62761190813e-05
5.35979569325e-05
1.40522722546e-05
5.15422824191e-05
1.11566128056e-05
4.95811931336e-05
8.44979156192e-06
4.79260438583e-05
6.22104518388e-06
4.66210056203e-05
4.4935292239e-06
4.56349899521e-05
3.19783480885e-06
4.49118568019e-05
2.24576395638e-06
4.4393652797e-05
1.55633253216e-06
4.40296990641e-05
1.06303577853e-06
4.37790023946e-05
7.14011375292e-07
4.36098438929e-05
4.69902707797e-07
4.34983766472e-05
3.013348481e-07
4.34270407131e-05
1.8664054786e-07
4.3383117259e-05
1.09990518337e-07
4.33575246061e-05
5.99177123183e-08
4.3343874206e-05
2.81698086985e-08
4.33375851383e-05
8.87500231973e-09
4.33358694831e-05
-1.9830946075e-09
4.33367596051e-05
-7.53142332437e-09
4.33388675207e-05
-9.70040194221e-09
4.33414013676e-05
-9.89679209629e-09
4.33439034303e-05
-9.0245930623e-09
4.33461370834e-05
-7.66606190279e-09
4.33480045325e-05
-6.1816841722e-09
4.33494909918e-05
-4.77808719568e-09
4.33506272445e-05
-3.55819859362e-09
4.3351465023e-05
-2.55884346594e-09
4.33520617567e-05
-1.77822178066e-09
4.33524692941e-05
-1.19235880033e-09
4.33527208646e-05
-7.6293402909e-10
4.33528626247e-05
-4.54291053024e-10
4.33529252248e-05
-2.1941740161e-10
4.33529618855e-05
-1.02314537813e-10
4.33529775697e-05
-2.83023831324e-11
4.33529783769e-05
1.77778316831e-11
4.33529701712e-05
4.40272734531e-11
4.33529567984e-05
5.81812056246e-11
4.33529403585e-05
6.60383186561e-11
4.33529219329e-05
7.10073061276e-11
4.33529019496e-05
7.50310805443e-11
4.33528803982e-05
7.91850741032e-11
4.33528570093e-05
8.40210774718e-11
4.33528314142e-05
8.98334169637e-11
4.33528033497e-05
9.68169561887e-11
4.33527727183e-05
1.05058688324e-10
4.33527395252e-05
1.14430452666e-10
4.33527039209e-05
1.24987474144e-10
4.33526663288e-05
1.36608208438e-10
4.33526275205e-05
1.48899389597e-10
4.33525887172e-05
1.6106288192e-10
4.33525517644e-05
1.71673163099e-10
4.33525193735e-05
1.78362758164e-10
4.33524954201e-05
1.7731729046e-10
4.33524853477e-05
1.62456915938e-10
4.33524975624e-05
1.23867474186e-10
4.33525478393e-05
4.46910288616e-11
4.33526599505e-05
-1.02279584154e-10
4.3352844602e-05
-3.41813046448e-10
4.33531957496e-05
-8.2215233181e-10
4.33538593543e-05
-1.58534982968e-09
4.33550173583e-05
-2.72809260123e-09
4.33568749238e-05
-4.50044707388e-09
4.33597928955e-05
-7.27536694789e-09
4.33643590245e-05
-1.16468508309e-08
4.33715036104e-05
-1.85518090896e-08
4.33826991076e-05
-2.95012964792e-08
4.34002599634e-05
-4.69682275958e-08
4.34277678696e-05
-7.50461030007e-08
4.34712476958e-05
-1.20596837892e-07
4.35403416685e-05
-1.95528317027e-07
4.36501221001e-05
-3.21091275699e-07
4.38228075035e-05
-5.35814461829e-07
4.40866063377e-05
-9.09675053208e-07
4.44632740999e-05
-1.56416706777e-06
4.49191136993e-05
-2.69379332572e-06
4.52105034032e-05
-4.58208098102e-06
-7.29338932044e-06
4.47352385931e-05
5.27351421079e-05
6.17350875021e-06
5.57309568563e-05
1.28851161522e-05
5.73115490173e-05
1.46955274295e-05
5.76111851114e-05
1.37526367235e-05
5.71339438756e-05
1.16338546327e-05
5.63202789484e-05
9.26345706358e-06
5.54504091269e-05
7.09091552424e-06
5.46652917614e-05
5.27864702822e-06
5.40172318881e-05
3.84589501679e-06
5.35113290375e-05
2.75166700325e-06
5.31314877953e-05
1.93617380666e-06
5.28547086547e-05
1.33981479302e-06
5.26580691944e-05
9.10650598884e-07
5.25216179287e-05
6.06353692482e-07
5.24291830237e-05
3.93769479379e-07
5.2368220823e-05
2.47602488144e-07
5.2329293055e-05
1.48918014292e-07
5.23054597518e-05
8.37507058031e-08
5.22917072027e-05
4.19220051475e-08
5.22844795737e-05
1.61022431091e-08
5.22813826229e-05
1.11341953288e-09
5.22807335354e-05
-6.88286296425e-09
5.22814174702e-05
-1.03849942276e-08
5.22827199634e-05
-1.1200068465e-08
5.22842081685e-05
-1.05136336401e-08
5.22856388933e-05
-9.09755237185e-09
5.22868910029e-05
-7.43437193329e-09
5.22879191482e-05
-5.80655787656e-09
5.22887222708e-05
-4.36139385846e-09
5.22893207791e-05
-3.15721997051e-09
5.22897450555e-05
-2.20223512938e-09
5.22900295268e-05
-1.47652050126e-09
5.22902132472e-05
-9.46387510259e-10
5.22903324547e-05
-5.73360486773e-10
5.22904337105e-05
-3.20729991557e-10
5.22904939078e-05
-1.62787230442e-10
5.22905320139e-05
-6.68676663909e-11
5.22905449201e-05
4.3173873588e-12
5.22905441835e-05
4.42301925971e-11
5.22905357677e-05
6.61914497503e-11
5.22905230478e-05
7.85561981791e-11
5.22905076756e-05
8.64128495332e-11
5.22904903169e-05
9.26395651531e-11
5.22904711254e-05
9.87690129873e-11
5.22904500728e-05
1.05501186195e-10
5.22904273777e-05
1.12885382723e-10
5.22904024554e-05
1.21948717081e-10
5.22903740422e-05
1.33501678574e-10
5.22903430383e-05
1.45313499047e-10
5.22903096586e-05
1.58194707448e-10
5.22902742804e-05
1.7190500654e-10
5.22902376504e-05
1.85674829501e-10
5.22902009515e-05
1.98227359022e-10
5.22901659634e-05
2.07487424977e-10
5.2290135391e-05
2.1009696926e-10
5.22901137327e-05
2.00381271619e-10
5.22901106351e-05
1.67066205777e-10
5.22901477115e-05
8.82399654302e-11
5.22902336262e-05
-4.00074421871e-11
5.22903684137e-05
-2.36214775804e-10
5.22906187355e-05
-5.91727536773e-10
5.22910619665e-05
-1.26542838197e-09
5.22917339879e-05
-2.25777982939e-09
5.22927788348e-05
-3.7735756694e-09
5.22944068735e-05
-6.12922360814e-09
5.22969322214e-05
-9.80146202113e-09
5.2300827779e-05
-1.55431291579e-08
5.23068225814e-05
-2.45473211448e-08
5.23160443893e-05
-3.87238253585e-08
5.2330233234e-05
-6.11578418892e-08
5.2352055499e-05
-9.68692169983e-08
5.23855722389e-05
-1.54114452717e-07
5.24367051826e-05
-2.46662033398e-07
5.25133057001e-05
-3.97692314765e-07
5.2623624938e-05
-6.46133879717e-07
5.27700139382e-05
-1.05606393667e-06
5.29317929845e-05
-1.72594589166e-06
5.3026341093e-05
-2.78834133437e-06
5.28310288884e-05
-4.38676895587e-06
-6.47092445419e-06
5.20085636704e-05
5.1983493694e-05
4.19001533035e-06
5.50586921626e-05
9.80991821312e-06
5.7638682267e-05
1.21155378728e-05
5.93260446444e-05
1.20652749698e-05
6.02282755605e-05
1.07316243738e-05
6.05933685645e-05
8.89836469323e-06
6.06489870381e-05
7.03529761248e-06
6.05542501727e-05
5.37338434298e-06
6.040448439e-05
3.99566110343e-06
6.02500369922e-05
2.90611453189e-06
6.01136386116e-05
2.07257214564e-06
6.00027448732e-05
1.45070834935e-06
5.99172317575e-05
9.9616346135e-07
5.98537673549e-05
6.69817833224e-07
5.98080966448e-05
4.39439949629e-07
5.97761214513e-05
2.79577456059e-07
5.97543307912e-05
1.70708435248e-07
5.97399049791e-05
9.81762484704e-08
5.97306702295e-05
5.11564498389e-08
5.97250056266e-05
2.17664914894e-08
5.97217704555e-05
4.3481439479e-09
5.9720077185e-05
-5.19018390137e-09
5.97193602203e-05
-9.66878611265e-09
5.97192130387e-05
-1.10537623437e-08
5.97193707421e-05
-1.06722222796e-08
5.97196666398e-05
-9.39421896513e-09
5.9720000786e-05
-7.76907813922e-09
5.97203176469e-05
-6.12373207324e-09
5.9720590474e-05
-4.63429271763e-09
5.97208117883e-05
-3.37839471235e-09
5.97209840955e-05
-2.37424532732e-09
5.97211144712e-05
-1.60652813362e-09
5.97212139005e-05
-1.04549349696e-09
5.97212902532e-05
-6.49552191977e-10
5.97213431045e-05
-3.73659348405e-10
5.97213695032e-05
-1.89506031344e-10
5.97213647897e-05
-6.26471239722e-11
5.97213571017e-05
1.14479718137e-11
5.97213503438e-05
5.04727472414e-11
5.97213440034e-05
7.21416801111e-11
5.97213354716e-05
8.68832731992e-11
5.97213244906e-05
9.74101945383e-11
5.97213111608e-05
1.06198081055e-10
5.97212954627e-05
1.14840146199e-10
5.97212771497e-05
1.24217561478e-10
5.97212555882e-05
1.34755482507e-10
5.97212310978e-05
1.46560837115e-10
5.97212049292e-05
1.59590275405e-10
5.97211765034e-05
1.73540242292e-10
5.97211462908e-05
1.88241025349e-10
5.97211151e-05
2.03113531511e-10
5.97210840467e-05
2.17030727057e-10
5.97210547415e-05
2.2817000003e-10
5.9721029406e-05
2.33798877559e-10
5.97210107019e-05
2.30064950939e-10
5.97210005048e-05
2.12024956089e-10
5.97209944954e-05
1.7454969651e-10
5.9720979886e-05
1.04178124199e-10
5.97209800713e-05
-3.91445928709e-11
5.97210734727e-05
-3.2893775431e-10
5.97212968858e-05
-8.14871621754e-10
5.97215987584e-05
-1.56740251996e-09
5.97220647672e-05
-2.72416436082e-09
5.97227833643e-05
-4.49272138541e-09
5.97238673619e-05
-7.21385109759e-09
5.97254825289e-05
-1.14172725851e-08
5.97278706213e-05
-1.7931864635e-08
5.97313852363e-05
-2.80626090077e-08
5.97365391938e-05
-4.38785469591e-08
5.9744061979e-05
-6.86815333998e-08
5.97549368006e-05
-1.07745035992e-07
5.97703458268e-05
-1.69524448081e-07
5.97913164906e-05
-2.67633506034e-07
5.98175055143e-05
-4.23881807417e-07
5.98439599101e-05
-6.72588301073e-07
5.98535970466e-05
-1.06570080733e-06
5.98027412157e-05
-1.67508981549e-06
5.95980762882e-05
-2.58367636052e-06
5.90681747774e-05
-3.8568677619e-06
-5.42696955495e-06
5.80242193758e-05
5.14373134798e-05
2.75270212084e-06
5.42658450029e-05
6.98138726443e-06
5.72496822714e-05
9.13170120555e-06
5.97900662785e-05
9.52489162961e-06
6.17201325878e-05
8.80155874682e-06
6.30882138686e-05
7.53028404779e-06
6.40164422605e-05
6.10706975787e-06
6.46286494827e-05
4.76117752231e-06
6.50247409953e-05
3.59956982731e-06
6.52773476337e-05
2.65350795642e-06
6.54363638501e-05
1.91355583971e-06
6.55349879981e-05
1.35208401259e-06
6.55949346868e-05
9.36216548242e-07
6.56302904804e-05
6.34461824392e-07
6.56501619091e-05
4.19568323623e-07
6.56604262234e-05
2.69312944249e-07
6.56648680917e-05
1.66266351877e-07
6.56659129279e-05
9.71311729834e-08
6.56650998658e-05
5.19692377943e-08
6.56633913904e-05
2.34746172196e-08
6.56613828128e-05
6.35623257272e-09
6.56593968656e-05
-3.20491162983e-09
6.56576139912e-05
-7.8867590785e-09
6.56561062407e-05
-9.54694427845e-09
6.56548879245e-05
-9.45479678961e-09
6.56539401893e-05
-8.44722369577e-09
6.56532275847e-05
-7.05700360405e-09
6.56527086939e-05
-5.60514371131e-09
6.56523428394e-05
-4.26851061365e-09
6.56520940533e-05
-3.12946094295e-09
6.56519318717e-05
-2.21174051394e-09
6.56518311916e-05
-1.50544903639e-09
6.56517695071e-05
-9.83476002571e-10
6.56517302719e-05
-6.10181917966e-10
6.56517048435e-05
-3.48357503626e-10
6.56516857577e-05
-1.70780705495e-10
6.56516838109e-05
-6.12007728437e-11
6.56516944156e-05
3.1090451756e-13
6.5651693876e-05
5.05322993054e-11
6.56516889379e-05
7.67136229052e-11
6.56516825729e-05
9.30523677535e-11
6.56516748952e-05
1.05106762057e-10
6.56516656102e-05
1.15713232764e-10
6.56516543129e-05
1.26502004942e-10
6.56516405805e-05
1.38312133625e-10
6.56516240513e-05
1.51500141874e-10
6.56516044536e-05
1.66147426572e-10
6.56515820165e-05
1.81827707279e-10
6.56515586928e-05
1.96621917644e-10
6.56515335774e-05
2.132500634e-10
6.56515067039e-05
2.30146559991e-10
6.56514786144e-05
2.45605697782e-10
6.5651450116e-05
2.57486271219e-10
6.56514223494e-05
2.62682726468e-10
6.56513969975e-05
2.56762770401e-10
6.56513770136e-05
2.33459886493e-10
6.56513688895e-05
1.84060610222e-10
6.56513735473e-05
1.00688867629e-10
6.56513808444e-05
-4.55918648777e-11
6.56514292142e-05
-3.76822118022e-10
6.56515012222e-05
-8.86740399501e-10
6.56516157064e-05
-1.68203005253e-09
6.56517806992e-05
-2.88951007533e-09
6.56520067042e-05
-4.71920561124e-09
6.56522965568e-05
-7.50421967132e-09
6.56526362595e-05
-1.17574866169e-08
6.5652977622e-05
-1.82737678592e-08
6.56532073706e-05
-2.82930071325e-08
6.56530877681e-05
-4.37597821417e-08
6.56521473311e-05
-6.77421362925e-08
6.56494417034e-05
-1.05040554974e-07
6.56430766554e-05
-1.63160474456e-07
6.56292560713e-05
-2.53813700812e-07
6.56003641532e-05
-3.94990215126e-07
6.55412765637e-05
-6.13500609803e-07
6.54227668226e-05
-9.47190722396e-07
6.51915916077e-05
-1.44391432349e-06
6.47596494346e-05
-2.15173421101e-06
6.39996115114e-05
-3.09683027155e-06
-4.22398941463e-06
6.27966307819e-05
5.10850502543e-05
1.66765216015e-06
5.36118607571e-05
4.45457739555e-06
5.66873159321e-05
6.05624666842e-06
5.96893667216e-05
6.52284150929e-06
6.22994539692e-05
6.19147215005e-06
6.44130418384e-05
5.41669675866e-06
6.6045905419e-05
4.47420664458e-06
6.72663602007e-05
3.54072306739e-06
6.81562348904e-05
2.70969530682e-06
6.87921991242e-05
2.01754374511e-06
6.92387370809e-05
1.46701779411e-06
6.95469536462e-05
1.04386729949e-06
6.97558909052e-05
7.27279125548e-07
6.98946478725e-05
4.95704694349e-07
6.99845242597e-05
3.29691767796e-07
7.00408870305e-05
2.12949986429e-07
7.00746827451e-05
1.32470432548e-07
7.00936135942e-05
7.82001035915e-08
7.01030280676e-05
4.25545008489e-08
7.01065849631e-05
1.99173496696e-08
7.0106745106e-05
6.19553747377e-09
7.01051087953e-05
-1.56935844723e-09
7.01026938645e-05
-5.47273644836e-09
7.01001080042e-05
-6.96202501091e-09
7.00976901565e-05
-7.03780156942e-09
7.00956033938e-05
-6.36115008425e-09
7.00939013321e-05
-5.35544122623e-09
7.00925738012e-05
-4.27791134218e-09
7.00915775777e-05
-3.27236647402e-09
7.00908561623e-05
-2.40789918577e-09
7.00903514478e-05
-1.70670027035e-09
7.00900100825e-05
-1.16369702381e-09
7.00897864786e-05
-7.59580595632e-10
7.00896452293e-05
-4.68859891626e-10
7.00895624482e-05
-2.65757631172e-10
7.00895209839e-05
-1.29695541293e-10
7.00894984913e-05
-3.91837834299e-11
7.00894781337e-05
2.01861498683e-11
7.00894742555e-05
5.39788130565e-11
7.00894733653e-05
7.72731376307e-11
7.00894724662e-05
9.37846002322e-11
7.0089470532e-05
1.07089113654e-10
7.00894669997e-05
1.19494825272e-10
7.00894615284e-05
1.32318486066e-10
7.00894539018e-05
1.46214999045e-10
7.0089444048e-05
1.61420385791e-10
7.00894320877e-05
1.77935014738e-10
7.00894180457e-05
1.95567309442e-10
7.00894004593e-05
2.13967485807e-10
7.00893807407e-05
2.32963558659e-10
7.0089359565e-05
2.51648523156e-10
7.00893373762e-05
2.68467453571e-10
7.00893147183e-05
2.81128787724e-10
7.00892922387e-05
2.86400279722e-10
7.00892704617e-05
2.7994027216e-10
7.00892491021e-05
2.56235979174e-10
7.00892256474e-05
2.08779647378e-10
7.00891956661e-05
1.316557243e-10
7.00891662157e-05
-1.54942456923e-11
7.00891232296e-05
-3.33520819001e-10
7.0089076181e-05
-8.39660788329e-10
7.00889901874e-05
-1.59623270802e-09
7.00888275931e-05
-2.7272665988e-09
7.00885243892e-05
-4.41639963373e-09
7.00879660305e-05
-6.94622526606e-09
7.00869537191e-05
-1.07455227295e-08
7.00851462542e-05
-1.64667341581e-08
7.00819649135e-05
-2.51123176631e-08
7.00764366756e-05
-3.82324925673e-08
7.0066950524e-05
-5.82571684808e-08
7.00507950773e-05
-8.88863584048e-08
7.00233733635e-05
-1.35739857172e-07
6.99769135149e-05
-2.07354560038e-07
6.98983020924e-05
-3.16378981712e-07
6.97656146338e-05
-4.80812896733e-07
6.95430293418e-05
-7.24604995804e-07
6.91748535753e-05
-1.07573824726e-06
6.85819113694e-05
-1.55879206919e-06
6.76664489846e-05
-2.18136834991e-06
-2.90622852854e-06
6.63486875024e-05
5.08804206057e-05
7.8723188245e-07
5.31704743126e-05
2.16452437119e-06
5.62177142249e-05
3.00900740435e-06
5.94380898238e-05
3.3024665484e-06
6.24444670849e-05
3.18509547744e-06
6.50371519414e-05
2.82401240174e-06
6.71527761987e-05
2.3585827736e-06
6.88099709796e-05
1.88352854426e-06
7.00674383303e-05
1.45222808711e-06
7.09970593947e-05
1.08792270791e-06
7.16689744683e-05
7.95102678904e-07
7.21446276138e-05
5.68214076962e-07
7.24745155854e-05
3.97391054835e-07
7.26984113685e-05
2.71808782575e-07
7.28466963187e-05
1.81406649945e-07
7.29420370583e-05
1.17609049138e-07
7.30010206174e-05
7.34866667662e-08
7.30355802157e-05
4.36402908246e-08
7.30541625575e-05
2.39718875437e-08
7.30626465207e-05
1.14329739407e-08
7.3065048305e-05
3.7931338002e-09
7.30640396924e-05
-5.615639908e-10
7.30613491091e-05
-2.78307722161e-09
7.30580487266e-05
-3.66254436812e-09
7.30547622627e-05
-3.75212191919e-09
7.30518170211e-05
-3.41654089462e-09
7.30493513012e-05
-2.8901990046e-09
7.30473892894e-05
-2.31620575734e-09
7.30458920598e-05
-1.77523429449e-09
7.30447913746e-05
-1.30708598515e-09
7.30440100993e-05
-9.25127955651e-10
7.30434743532e-05
-6.27618160397e-10
7.30431198686e-05
-4.048814886e-10
7.30428946652e-05
-2.43659019692e-10
7.30427587563e-05
-1.3007114707e-10
7.30426803175e-05
-5.16243002816e-11
7.30426370877e-05
3.62396012029e-12
7.30426204135e-05
3.64438483203e-11
7.3042613668e-05
6.03504799196e-11
7.30426129361e-05
7.77269231997e-11
7.30426146924e-05
9.19190601047e-11
7.3042616792e-05
1.05091998184e-10
7.30426180083e-05
1.18546098696e-10
7.30426176195e-05
1.32995582162e-10
7.30426152048e-05
1.48763587888e-10
7.30426105615e-05
1.65942156965e-10
7.30426036679e-05
1.84495233916e-10
7.30425946204e-05
2.04242536573e-10
7.30425835613e-05
2.24825488073e-10
7.3042570701e-05
2.45943821539e-10
7.30425561377e-05
2.6670379644e-10
7.30425398665e-05
2.85575931282e-10
7.30425217736e-05
3.00347293014e-10
7.30425015646e-05
3.07951438617e-10
7.30424787026e-05
3.04238541846e-10
7.30424525287e-05
2.83766834989e-10
7.30424225776e-05
2.39851217155e-10
7.30423894261e-05
1.65608019218e-10
7.30423304627e-05
4.39403948254e-11
7.30422197181e-05
-2.22600527323e-10
7.30420494209e-05
-6.69431945902e-10
7.30417683308e-05
-1.31538793677e-09
7.30412993787e-05
-2.25863061135e-09
7.30405133099e-05
-3.63060689171e-09
7.30391960676e-05
-5.62918512892e-09
7.30369950999e-05
-8.54475547714e-09
7.30333272925e-05
-1.27992912933e-08
7.30272345453e-05
-1.90202590563e-08
7.30171578861e-05
-2.81568773435e-08
7.30006018564e-05
-4.17024251791e-08
7.29735208722e-05
-6.18066814195e-08
7.29293526058e-05
-9.15726393951e-08
7.28575849882e-05
-1.35587530252e-07
7.27415815773e-05
-2.00375644234e-07
7.2555518787e-05
-2.94749713332e-07
7.22605846222e-05
-4.29670280958e-07
7.18015624252e-05
-6.1671571274e-07
7.11067388918e-05
-8.6396859618e-07
7.00953655653e-05
-1.16999546399e-06
-1.51375634452e-06
6.87028928248e-05
5.07871796836e-05
5.25561460331e-11
5.29516531852e-05
5.15826688288e-11
5.59606328341e-05
2.83926992392e-11
5.92630853456e-05
1.46283750779e-11
6.24481774466e-05
3.89905002461e-12
6.52721949328e-05
-4.65489901253e-12
6.76307882396e-05
-1.02047663243e-11
6.95143299442e-05
-1.29346020634e-11
7.09665713939e-05
-1.32251305577e-11
7.20545058311e-05
-1.1656522722e-11
7.28496174131e-05
-8.87199221717e-12
7.34178370635e-05
-5.58006412393e-12
7.38152305894e-05
-2.5315704879e-12
7.40870397022e-05
-4.6179776249e-13
7.42684460765e-05
7.88589140007e-14
7.43860560312e-05
-1.13102869008e-12
7.44595465626e-05
-4.08117278325e-12
7.45031946865e-05
-8.05117684086e-12
7.45271783742e-05
-1.20915732359e-11
7.45386259379e-05
-1.50475007598e-11
7.454243428e-05
-1.58796422174e-11
7.45418876464e-05
-1.5771266873e-11
7.45391191953e-05
-1.55204250123e-11
7.45354710266e-05
-1.52072559402e-11
7.45317328001e-05
-1.4607372523e-11
7.45283289538e-05
-1.32868565534e-11
7.45254491282e-05
-1.08508245879e-11
7.45231396752e-05
-7.0824907463e-12
7.45213659498e-05
-1.63555744047e-12
7.45200548673e-05
4.08888134339e-12
7.45191195512e-05
1.04298562467e-11
7.45184751013e-05
1.70845400928e-11
7.45180466727e-05
2.36737903068e-11
7.45177727243e-05
3.02232814927e-11
7.45176054196e-05
3.69995639019e-11
7.45175093894e-05
4.40801300134e-11
7.45174610164e-05
5.16440881446e-11
7.45174383078e-05
5.88050856523e-11
7.45174313872e-05
6.69634307437e-11
7.45174326742e-05
7.62383009875e-11
7.45174376758e-05
8.68935527358e-11
7.45174437941e-05
9.91374196871e-11
7.45174495243e-05
1.13071944899e-10
7.45174540062e-05
1.2869204133e-10
7.45174567949e-05
1.45923686762e-10
7.45174577386e-05
1.64680373661e-10
7.4517456894e-05
1.84870704565e-10
7.45174543944e-05
2.06337817264e-10
7.45174503036e-05
2.28782217849e-10
7.4517444698e-05
2.51798328184e-10
7.45174375146e-05
2.74527161913e-10
7.45174284859e-05
2.95585170068e-10
7.45174170899e-05
3.13000270595e-10
7.45174024037e-05
3.24072326486e-10
7.45173828876e-05
3.25202493398e-10
7.45173561479e-05
3.11784631128e-10
7.45173188171e-05
2.78167917797e-10
7.4517267539e-05
2.1753711647e-10
7.45171879606e-05
1.23849597813e-10
7.45170265197e-05
-6.11007378837e-11
7.45167653541e-05
-4.08417059728e-10
7.45163419246e-05
-8.92226827441e-10
7.45156468997e-05
-1.56386491231e-09
7.45145096655e-05
-2.49352605723e-09
7.45126540343e-05
-3.77360849495e-09
7.45096333501e-05
-5.5241751967e-09
7.45047154817e-05
-7.8817828891e-09
7.4496709592e-05
-1.10151137886e-08
7.44836992884e-05
-1.51476855784e-08
7.44626849764e-05
-2.06894520795e-08
7.44289088711e-05
-2.80318782526e-08
7.43747711892e-05
-3.74359549694e-08
7.42883961894e-05
-4.92130261011e-08
7.41515301387e-05
-6.35095453165e-08
7.39367928216e-05
-8.00119164936e-08
7.36046066567e-05
-9.74835109352e-08
7.31009601473e-05
-1.13068812566e-07
7.23584954646e-05
-1.21503931691e-07
7.13040501519e-05
-1.15550543545e-07
-8.65249770239e-08
6.98768183151e-05
5.07871786057e-05