/*--------------------------------*- C++ -*----------------------------------*\
| =========                 |                                                 |
| \\      /  F ield         | OpenFOAM: The Open Source CFD Toolbox           |
|  \\    /   O peration     | Version:  2106                                  |
|   \\  /    A nd           | Website:  www.openfoam.com                      |
|    \\/     M anipulation  |                                                 |
\*---------------------------------------------------------------------------*/
FoamFile
{
    version     2.0;
    format      ascii;
    arch        "LSB;label=32;scalar=64";
    class       surfaceScalarField;
    location    "0.01";
    object      phi;
}
// * * * * * * * * * * * * * * * * * * * * * * * * * * * * * * * * * * * * * //

dimensions      [0 3 -1 0 0 0 0];

oriented        oriented;

internalField   nonuniform List<scalar> 
22100
(
3.38442875239e-05
1.61557124707e-05
2.25811653586e-05
1.12631220582e-05
1.66580386552e-05
5.92312610085e-06
1.35781798633e-05
3.07985889002e-06
1.20045479471e-05
1.57363157853e-06
1.12037427484e-05
8.00805233951e-07
1.07934360576e-05
4.10306496852e-07
1.05802246266e-05
2.13211666365e-07
1.04674259602e-05
1.12798751771e-07
1.04067427714e-05
6.06833795166e-08
1.0373737556e-05
3.30054308198e-08
1.03557440579e-05
1.79936386066e-08
1.03460097893e-05
9.73441631585e-09
1.03408410712e-05
5.16892022668e-09
1.0338175779e-05
2.66548466844e-09
1.03368337654e-05
1.3422043069e-09
1.03362378685e-05
5.95969547062e-10
1.03360662309e-05
1.71777411011e-10
1.03360807816e-05
-1.4404959508e-11
1.03361701199e-05
-8.95390665211e-11
1.03362718629e-05
-1.0221083055e-10
1.03363674735e-05
-9.61453744996e-11
1.03364436556e-05
-7.65588306308e-11
1.03365000892e-05
-5.64596710419e-11
1.03365408047e-05
-4.05218790887e-11
1.03365691997e-05
-2.81617281995e-11
1.03365878149e-05
-1.82756607966e-11
1.03365990732e-05
-1.08675737839e-11
1.03366051088e-05
-5.739724921e-12
1.03366073628e-05
-1.96679182796e-12
1.03366064298e-05
1.26131753043e-12
1.0336602629e-05
4.03561684917e-12
1.03365966983e-05
6.06733467276e-12
1.03365895964e-05
7.23141631024e-12
1.03365818502e-05
7.80707524098e-12
1.03365735004e-05
8.29271230619e-12
1.0336564598e-05
8.85802685668e-12
1.03365555135e-05
9.16560214854e-12
1.03365466566e-05
9.0265538322e-12
1.03365379337e-05
8.91632054652e-12
1.03365287077e-05
9.4056228915e-12
1.0336518407e-05
1.0381320854e-11
1.03365069924e-05
1.13042689179e-11
1.03364946563e-05
1.20767642497e-11
1.03364811958e-05
1.31908537123e-11
1.03364658998e-05
1.50544061699e-11
1.03364480211e-05
1.75818523414e-11
1.03364272965e-05
2.03688742671e-11
1.03364036561e-05
2.33794869538e-11
1.03363766491e-05
2.69541457678e-11
1.03363453108e-05
3.14098065523e-11
1.03363085944e-05
3.67873550467e-11
1.0336265743e-05
4.29517493119e-11
1.0336216078e-05
4.9856446842e-11
1.03361586096e-05
5.76144945487e-11
1.03360923123e-05
6.61839969562e-11
1.03360171492e-05
7.48281357002e-11
1.0335935181e-05
8.16803359439e-11
1.03358514541e-05
8.36447347461e-11
1.03357764116e-05
7.51386500488e-11
1.03357308222e-05
4.58272309041e-11
1.03357368646e-05
-5.74494603987e-12
1.03358351923e-05
-9.81360673066e-11
1.03360962228e-05
-2.6097440068e-10
1.03366372066e-05
-5.4099344212e-10
1.03376441507e-05
-1.00706866523e-09
1.03394035881e-05
-1.75968690513e-09
1.03423219058e-05
-2.91862152269e-09
1.0346954573e-05
-4.63301212043e-09
1.03550679014e-05
-8.11364144208e-09
1.03683610773e-05
-1.32935003303e-08
1.03899169036e-05
-2.1556203936e-08
1.04247992138e-05
-3.48824840075e-08
1.04816943976e-05
-5.68951547032e-08
1.05767813028e-05
-9.50868469772e-08
1.07445124975e-05
-1.67731103048e-07
1.10866771491e-05
-3.42164330212e-07
1.19204755785e-05
-8.33797971748e-07
1.44497585857e-05
-2.52928276453e-06
-9.42284000663e-06
2.38725987706e-05
5.03084942131e-05
1.58472173286e-05
4.4704557161e-05
1.68670580205e-05
3.89060622388e-05
1.17216200586e-05
3.46590720202e-05
7.32684827497e-06
3.1927777455e-05
4.30492568759e-06
3.02925914195e-05
2.43599116854e-06
2.93482573335e-05
1.35464090036e-06
2.88111797364e-05
7.50289694991e-07
2.85066377794e-05
4.17341473016e-07
2.83332819222e-05
2.34040147088e-07
2.82340001832e-05
1.322880999e-07
2.81768635766e-05
7.51312860613e-08
2.81439214692e-05
4.26773468827e-08
2.81249675764e-05
2.41232739025e-08
2.81141400091e-05
1.34931777328e-08
2.81080730355e-05
7.40879640391e-09
2.81047414072e-05
3.92684438359e-09
2.81029385919e-05
1.97383779075e-09
2.81020223547e-05
9.01187121991e-10
2.81016388884e-05
2.93625534893e-10
2.81014880739e-05
4.85173270592e-11
2.81014462187e-05
-5.44668863821e-11
2.81014504545e-05
-8.09357937423e-11
2.81014740058e-05
-7.99572329463e-11
2.81015033743e-05
-6.95892497197e-11
2.81015315824e-05
-5.5701013959e-11
2.81015547416e-05
-4.06248599201e-11
2.81015720401e-05
-2.75736934895e-11
2.81015843477e-05
-1.76134606528e-11
2.81015925023e-05
-9.72027940566e-12
2.81015967166e-05
-2.68216504734e-12
2.81015972885e-05
3.61729260007e-12
2.81015950715e-05
8.42816902592e-12
2.81015910925e-05
1.12872544766e-11
2.81015860282e-05
1.28602036769e-11
2.81015800765e-05
1.4316538006e-11
2.81015732439e-05
1.59137970638e-11
2.8101565713e-05
1.68971509695e-11
2.8101557735e-05
1.70493879095e-11
2.8101549068e-05
1.75363823998e-11
2.81015388423e-05
1.95556654792e-11
2.8101526244e-05
2.28050212211e-11
2.81015111553e-05
2.60559746197e-11
2.81014938225e-05
2.89555318526e-11
2.81014739855e-05
3.25099134504e-11
2.8101450658e-05
3.78062976627e-11
2.81014227329e-05
4.49327134017e-11
2.81013897841e-05
5.28972730771e-11
2.81013516856e-05
6.13256426782e-11
2.81013079304e-05
7.07950255384e-11
2.81012576258e-05
8.19383938835e-11
2.81012001342e-05
9.45536983478e-11
2.81011355082e-05
1.07769246201e-10
2.81010644122e-05
1.20892826098e-10
2.81009881742e-05
1.33568662574e-10
2.81009095595e-05
1.44595996664e-10
2.81008343152e-05
1.50154709473e-10
2.81007736173e-05
1.42518753608e-10
2.81007477272e-05
1.09453276403e-10
2.81007932959e-05
2.94245907938e-11
2.81009822719e-05
-1.43070304856e-10
2.81014356088e-05
-4.58839987506e-10
2.8102310086e-05
-9.72407659147e-10
2.81037353012e-05
-1.68613271959e-09
2.81060851409e-05
-2.89099876889e-09
2.81099259503e-05
-4.84815686214e-09
2.81161442691e-05
-7.97831564069e-09
2.81261661051e-05
-1.29409192034e-08
2.81423200859e-05
-2.07874660776e-08
2.81676392406e-05
-3.34332189765e-08
2.82083513101e-05
-5.40060787704e-08
2.82735283652e-05
-8.67335267075e-08
2.83783543335e-05
-1.39708402662e-07
2.85491363138e-05
-2.27676929137e-07
2.88337468051e-05
-3.79696978945e-07
2.93264587622e-05
-6.60442728943e-07
3.0211051543e-05
-1.22675673817e-06
3.18590230384e-05
-2.48176953526e-06
3.48998943337e-05
-5.57015434669e-06
-1.28841157872e-05
3.83611703219e-05
5.36434063952e-05
1.2203811108e-05
5.34944083557e-05
1.70160547719e-05
5.09774050452e-05
1.42386230866e-05
4.81914857321e-05
1.01127670027e-05
4.59475530768e-05
6.54885810214e-06
4.43811033254e-05
4.00244080277e-06
4.33699217066e-05
2.36582274988e-06
4.27449373584e-05
1.37527428208e-06
4.23673264614e-05
7.94952676997e-07
4.21414919945e-05
4.59874936056e-07
4.2006892591e-05
2.66887932436e-07
4.19267281549e-05
1.5529626839e-07
4.18790101768e-05
9.03958532946e-08
4.18506591122e-05
5.24749116384e-08
4.18338833241e-05
3.02692875584e-08
4.18240188331e-05
1.72734150375e-08
4.18182514335e-05
9.69424144143e-09
4.18149138728e-05
5.31094316552e-09
4.181300709e-05
2.80721312809e-09
4.18118967564e-05
1.403316559e-09
4.18112973196e-05
6.47398600076e-10
4.18110324459e-05
2.10076357746e-10
4.18108969892e-05
5.44806332687e-11
4.18108341542e-05
-1.70442269773e-11
4.18108128204e-05
-4.79904866744e-11
4.18108110881e-05
-5.34685352014e-11
4.18108163934e-05
-4.53900148777e-11
4.18108233315e-05
-3.40008343824e-11
4.18108297931e-05
-2.35445652285e-11
4.18108347525e-05
-1.42393223931e-11
4.18108375641e-05
-5.24964613545e-12
4.181083801e-05
3.28903191877e-12
4.18108363675e-05
1.00999021098e-11
4.18108332143e-05
1.43335149624e-11
4.18108290713e-05
1.68585359727e-11
4.18108241465e-05
1.92596433776e-11
4.18108183907e-05
2.18666350061e-11
4.18108117882e-05
2.37278766731e-11
4.18108043776e-05
2.46366064296e-11
4.18107958468e-05
2.6164810227e-11
4.18107854304e-05
2.99159013987e-11
4.18107724033e-05
3.55810941201e-11
4.18107565381e-05
4.15429700574e-11
4.18107378995e-05
4.71569953395e-11
4.18107162681e-05
5.36320503285e-11
4.18106908663e-05
6.26352849914e-11
4.18106604814e-05
7.48080918491e-11
4.18106246258e-05
8.84483859161e-11
4.18105831491e-05
1.02705740644e-10
4.18105357399e-05
1.18237055763e-10
4.18104819778e-05
1.3586414026e-10
4.18104218051e-05
1.55036228149e-10
4.18103559424e-05
1.73908896917e-10
4.18102861757e-05
1.90617194712e-10
4.18102159204e-05
2.03450845839e-10
4.1810151428e-05
2.0871300039e-10
4.18101039968e-05
1.97450927287e-10
4.18100935446e-05
1.53026435472e-10
4.18101532685e-05
4.99004430857e-11
4.18103400788e-05
-1.57132313521e-10
4.18107686428e-05
-5.7143365932e-10
4.18114584944e-05
-1.14859312199e-09
4.18125752349e-05
-2.08907669104e-09
4.18145362935e-05
-3.64722202894e-09
4.18178057607e-05
-6.16063308221e-09
4.18231281205e-05
-1.01707205096e-08
4.18316792361e-05
-1.6529720184e-08
4.18453210118e-05
-2.65830222651e-08
4.1867014884e-05
-4.2481668399e-08
4.19013337443e-05
-6.77525176862e-08
4.19554482408e-05
-1.08120917093e-07
4.20411078853e-05
-1.72393349014e-07
4.21773860408e-05
-2.75986550525e-07
4.23954997102e-05
-4.45790198902e-07
4.27470265003e-05
-7.31223207674e-07
4.33158308164e-05
-1.22924689443e-06
4.42266196981e-05
-2.13754569594e-06
4.56086830331e-05
-3.86383270073e-06
4.72911443e-05
-7.25261592143e-06
-1.33799183608e-05
4.77869464269e-05
5.36016171471e-05
8.60219386328e-06
5.59850122823e-05
1.46326588871e-05
5.62396474056e-05
1.39839870521e-05
5.54168015772e-05
1.09356126473e-05
5.43251991377e-05
7.64046027023e-06
5.33579421619e-05
4.96969778892e-06
5.26322289617e-05
3.09153625032e-06
5.21338601454e-05
1.87364358593e-06
5.18085327042e-05
1.12028067758e-06
5.16023291989e-05
6.66079096625e-07
5.14738318723e-05
3.95385840416e-07
5.13945468858e-05
2.34581790885e-07
5.13459319305e-05
1.39011281296e-07
5.13162632253e-05
8.21436564923e-08
5.12982355762e-05
4.82968395333e-08
5.12873292139e-05
2.81796627212e-08
5.12807611479e-05
1.62620741938e-08
5.12768304418e-05
9.24132775854e-09
5.12744973395e-05
5.13993519427e-09
5.12731281837e-05
2.77186970366e-09
5.12723423367e-05
1.43269730594e-09
5.12718511007e-05
7.01139854173e-10
5.12715758767e-05
3.2979817918e-10
5.12714123933e-05
1.46681464233e-10
5.12713245355e-05
4.03046359068e-11
5.12712814404e-05
-9.81754559617e-12
5.12712608735e-05
-2.42768609045e-11
5.12712519235e-05
-2.44872362099e-11
5.12712488724e-05
-1.99335725284e-11
5.1271248289e-05
-1.32575085173e-11
5.12712483568e-05
-5.08609165716e-12
5.1271248168e-05
3.68343973095e-12
5.12712471993e-05
1.12526629375e-11
5.12712452679e-05
1.63953360668e-11
5.12712424643e-05
1.98551769128e-11
5.12712388496e-05
2.31869500686e-11
5.12712342857e-05
2.67579574431e-11
5.12712285795e-05
2.97324569266e-11
5.12712215624e-05
3.19583022376e-11
5.1271212904e-05
3.50485283744e-11
5.12712021339e-05
4.06584990969e-11
5.12711887533e-05
4.86344215004e-11
5.12711723364e-05
5.74525065104e-11
5.12711525235e-05
6.64054391328e-11
5.12711288842e-05
7.66734386936e-11
5.12711008588e-05
9.00450979566e-11
5.12710681426e-05
1.07009840966e-10
5.12710302666e-05
1.2605113589e-10
5.12709867079e-05
1.4623390322e-10
5.12709370958e-05
1.67945279067e-10
5.12708813142e-05
1.91792572483e-10
5.12708196353e-05
2.16902617464e-10
5.1270752942e-05
2.40764383788e-10
5.12706831754e-05
2.60406976263e-10
5.12706139705e-05
2.7251448532e-10
5.1270551206e-05
2.71222372015e-10
5.12705032462e-05
2.45111551883e-10
5.1270480918e-05
1.75182180204e-10
5.12704991887e-05
3.17293804747e-11
5.12705729456e-05
-2.30663838801e-10
5.12708037679e-05
-8.02101739154e-10
5.12714309597e-05
-1.77563227105e-09
5.12726107689e-05
-3.26867795342e-09
5.12746015067e-05
-5.63778226264e-09
5.1277855863e-05
-9.41491949568e-09
5.12830902962e-05
-1.54052937351e-08
5.12914218225e-05
-2.48614849594e-08
5.13045907991e-05
-3.97522079192e-08
5.13253052648e-05
-6.31964842943e-08
5.1357728486e-05
-1.00176064641e-07
5.14082069005e-05
-1.58599452748e-07
5.14869215168e-05
-2.51108050205e-07
5.16094479758e-05
-3.9851315115e-07
5.17992176293e-05
-6.35559947745e-07
5.20897000772e-05
-1.02170514023e-06
5.25222013727e-05
-1.66174764766e-06
5.31261245961e-05
-2.74146864302e-06
5.38410318687e-05
-4.57874003486e-06
5.42685354017e-05
-7.68011977981e-06
-1.24273156623e-05
5.33159328694e-05
5.2761051555e-05
5.84114148757e-06
5.58736652107e-05
1.1520044263e-05
5.77052515697e-05
1.2152400027e-05
5.84028971704e-05
1.02379665521e-05
5.84425133461e-05
7.60084383713e-06
5.8208775709e-05
5.20343538995e-06
5.79210716265e-05
3.37924051907e-06
5.76719768466e-05
2.12273857878e-06
5.74850482987e-05
1.30720977617e-06
5.73550153669e-05
7.96112683588e-07
5.72684758396e-05
4.81926142307e-07
5.7212412944e-05
2.9064543921e-07
5.7176703954e-05
1.7472076965e-07
5.71542106293e-05
1.04637249236e-07
5.71401504702e-05
6.2356920735e-08
5.71314110118e-05
3.69186722079e-08
5.71260018085e-05
2.16708247809e-08
5.71226649827e-05
1.25778109856e-08
5.71206117291e-05
7.19289114491e-09
5.71193490099e-05
4.03432171005e-09
5.71185704166e-05
2.21110369454e-09
5.71180845818e-05
1.18687650922e-09
5.71177960015e-05
6.18329312929e-10
5.71176409684e-05
3.01826081293e-10
5.71175578975e-05
1.2371646588e-10
5.71175181263e-05
3.03758864255e-11
5.71174930205e-05
1.2605459922e-12
5.71174790963e-05
-1.00967190738e-11
5.71174715729e-05
-1.20433039879e-11
5.71174673249e-05
-8.84751081382e-12
5.71174648063e-05
-2.49865044027e-12
5.71174631244e-05
5.38112016602e-12
5.7117461461e-05
1.28109025163e-11
5.71174593207e-05
1.84143580437e-11
5.71174565041e-05
2.26721258464e-11
5.71174529248e-05
2.68141611841e-11
5.71174484667e-05
3.12205733259e-11
5.71174428635e-05
3.53674804217e-11
5.71174356984e-05
3.92399490186e-11
5.71174266327e-05
4.4211610908e-11
5.71174154628e-05
5.17438923002e-11
5.71174019384e-05
6.18466804204e-11
5.71173856633e-05
7.32847280864e-11
5.71173662672e-05
8.53216259334e-11
5.71173438397e-05
9.85799554711e-11
5.71173198865e-05
1.13437307161e-10
5.71172890154e-05
1.37397471396e-10
5.71172524169e-05
1.62392195734e-10
5.71172101899e-05
1.88448454271e-10
5.71171618767e-05
2.16382669885e-10
5.71171071411e-05
2.46677842689e-10
5.71170459653e-05
2.78176877771e-10
5.7116978797e-05
3.07923733013e-10
5.71169069001e-05
3.32206910688e-10
5.71168329074e-05
3.46388546792e-10
5.71167616201e-05
3.42367503353e-10
5.7116702304e-05
3.04264523749e-10
5.71166804297e-05
1.96970591229e-10
5.71167363501e-05
-2.41676302707e-11
5.71168419613e-05
-3.36187864073e-10
5.71170776077e-05
-1.03756527167e-09
5.71175240375e-05
-2.22183238706e-09
5.71183238627e-05
-4.06833848962e-09
5.7119700624e-05
-7.01437516064e-09
5.71219781643e-05
-1.16923022842e-08
5.71256508192e-05
-1.90779345435e-08
5.71314762754e-05
-3.06871100693e-08
5.71406137464e-05
-4.88900770455e-08
5.71548223711e-05
-7.74055395845e-08
5.71767305136e-05
-1.22084475246e-07
5.7210243303e-05
-1.92112369235e-07
5.72610874584e-05
-3.01952090748e-07
5.73371737495e-05
-4.74599085437e-07
5.74483473292e-05
-7.46733052089e-07
5.76037436637e-05
-1.17710124e-06
5.7801937106e-05
-1.85994096767e-06
5.80032649058e-05
-2.94279630455e-06
5.80640478965e-05
-4.63952264696e-06
5.75993581024e-05
-7.21543039316e-06
-1.07462456986e-05
5.59182883997e-05
5.19516820895e-05
3.88945915637e-06
5.49416440077e-05
8.53008135598e-06
5.74145509655e-05
9.67949234319e-06
5.9017199962e-05
8.63531720107e-06
5.98917531242e-05
6.72629052197e-06
6.02966461987e-05
4.79854242932e-06
6.04478074668e-05
3.22807938192e-06
6.04815403526e-05
2.08900614975e-06
6.04701280413e-05
1.31862248503e-06
6.04467688491e-05
8.19472387145e-07
6.04243918308e-05
5.04303782576e-07
6.04067419034e-05
3.08295905766e-07
6.03939788043e-05
1.87484435265e-07
6.03851663929e-05
1.13450103161e-07
6.03792412909e-05
6.82820824817e-08
6.03753197975e-05
4.08400128186e-08
6.03727478171e-05
2.42423071269e-08
6.037106891e-05
1.42560759063e-08
6.0369974985e-05
8.28624971787e-09
6.03692617941e-05
4.74700555385e-09
6.03687989651e-05
2.67351679305e-09
6.03685083535e-05
1.477157245e-09
6.03683326496e-05
7.93880407623e-10
6.03682302674e-05
4.04399398499e-10
6.0368163441e-05
1.90989438274e-10
6.03681096028e-05
8.47322830303e-11
6.03680755756e-05
3.58544347512e-11
6.03680538208e-05
1.22113660263e-11
6.03680410997e-05
1.11351265824e-12
6.03680329973e-05
-3.55933296203e-13
6.03680277928e-05
3.1058679813e-12
6.0368024446e-05
9.02950022055e-12
6.03680219861e-05
1.54729956018e-11
6.03680195847e-05
2.10597056005e-11
6.03680166935e-05
2.58581780184e-11
6.03680130403e-05
3.07114963569e-11
6.03680083273e-05
3.61071739408e-11
6.03680020506e-05
4.17870182769e-11
6.03679942925e-05
4.70902170886e-11
6.03679845575e-05
5.38945812343e-11
6.03679729434e-05
6.30956377962e-11
6.03679594626e-05
7.49126147501e-11
6.03679435384e-05
8.87502478277e-11
6.03679241512e-05
1.04225501863e-10
6.03679002141e-05
1.21975066048e-10
6.0367869927e-05
1.43182637866e-10
6.03678385138e-05
1.68407481361e-10
6.03678038801e-05
1.96817186122e-10
6.03677644648e-05
2.27789305293e-10
6.03677196409e-05
2.61229105325e-10
6.03676694651e-05
2.96973967663e-10
6.03676141037e-05
3.33653382339e-10
6.03675536812e-05
3.68297965795e-10
6.03674890068e-05
3.96669592286e-10
6.03674222941e-05
4.12866514407e-10
6.03673568894e-05
4.07615124486e-10
6.03672944008e-05
3.66682382058e-10
6.03672185515e-05
2.72771547503e-10
6.03670891763e-05
1.05179531517e-10
6.03670543984e-05
-3.01229277011e-10
6.03670955843e-05
-1.07833408104e-09
6.03671945063e-05
-2.32042572771e-09
6.03674346166e-05
-4.3083300822e-09
6.03678876235e-05
-7.46729755783e-09
6.03686621683e-05
-1.24667667827e-08
6.03699194836e-05
-2.0335298008e-08
6.03718896763e-05
-3.26575525089e-08
6.03748965159e-05
-5.18970980944e-08
6.03793755724e-05
-8.18845734084e-08
6.03858615664e-05
-1.28570626111e-07
6.03949168238e-05
-2.01167913454e-07
6.04068634545e-05
-3.13898877579e-07
6.04209557541e-05
-4.88691234071e-07
6.04333023432e-05
-7.59079355625e-07
6.04318859154e-05
-1.17568444614e-06
6.03851785164e-05
-1.81323338082e-06
6.02187601463e-05
-2.77637799385e-06
5.97739576808e-05
-4.19472017636e-06
5.87486942501e-05
-6.19016761983e-06
-8.72709925601e-06
5.67295479411e-05
5.13710085383e-05
2.51845011121e-06
5.39657725445e-05
5.93531657388e-06
5.65512949187e-05
7.09396930571e-06
5.85834879247e-05
6.60312380222e-06
5.99757428152e-05
5.33403539447e-06
6.08464017521e-05
3.92788348133e-06
6.13586997166e-05
2.71578180585e-06
6.16487403602e-05
1.79896589022e-06
6.18094440544e-05
1.15791951566e-06
6.18976734842e-05
7.31243746722e-07
6.19460455817e-05
4.55932368614e-07
6.1972614609e-05
2.81727514384e-07
6.19872264273e-05
1.72872976617e-07
6.199524432e-05
1.05432262416e-07
6.19996083248e-05
6.39180379912e-08
6.20019441573e-05
3.85039266655e-08
6.20031577788e-05
2.30282080864e-08
6.20037566101e-05
1.36567312727e-08
6.20040251028e-05
8.01725892618e-09
6.20041224172e-05
4.64927702609e-09
6.20041381454e-05
2.65747373882e-09
6.20041217136e-05
1.49332682041e-09
6.20040948767e-05
8.20619417207e-10
6.20040629579e-05
4.36463122069e-10
6.20040309876e-05
2.23248859378e-10
6.20040039424e-05
1.12156737218e-10
6.20039871817e-05
5.30690160017e-11
6.20039780768e-05
2.17471706236e-11
6.20039722603e-05
7.29601133263e-12
6.20039671761e-05
5.04870423125e-12
6.20039633058e-05
7.18600960568e-12
6.20039608989e-05
1.14929048214e-11
6.20039584439e-05
1.79166138088e-11
6.20039559764e-05
2.35187170272e-11
6.20039532257e-05
2.86035620162e-11
6.20039500443e-05
3.39172751384e-11
6.20039464328e-05
3.98341339353e-11
6.20039421805e-05
4.62522121397e-11
6.2003936215e-05
5.32551814784e-11
6.20039284125e-05
6.17280062122e-11
6.20039186448e-05
7.269340724e-11
6.2003906822e-05
8.64571272188e-11
6.2003892639e-05
1.02583518701e-10
6.20038755225e-05
1.20861665278e-10
6.20038549377e-05
1.41972289526e-10
6.20038306052e-05
1.66999374732e-10
6.20038025783e-05
1.96125319848e-10
6.20037726753e-05
2.26549012933e-10
6.20037385163e-05
2.61804423898e-10
6.20036990065e-05
3.00661885392e-10
6.20036535985e-05
3.42421624439e-10
6.20036015757e-05
3.85717201428e-10
6.20035419443e-05
4.27839026993e-10
6.20034735702e-05
4.64832159569e-10
6.20033952598e-05
4.90925828288e-10
6.20033058322e-05
4.96846474947e-10
6.20032050628e-05
4.67365785231e-10
6.20030986148e-05
3.79196148088e-10
6.20029961457e-05
2.07698314742e-10
6.2002797332e-05
-1.02215163996e-10
6.20025578736e-05
-8.38613889945e-10
6.20022309269e-05
-1.99322979379e-09
6.20017841413e-05
-3.86127138565e-09
6.20011385684e-05
-6.82152495545e-09
6.200016734e-05
-1.14955054507e-08
6.19986647131e-05
-1.88328189551e-08
6.19962830349e-05
-3.02761011029e-08
6.19924444438e-05
-4.80586353056e-08
6.19861827678e-05
-7.56230543897e-08
6.19758650409e-05
-1.18253122296e-07
6.19587090538e-05
-1.84012005644e-07
6.19299237332e-05
-2.85113324884e-07
6.18811100651e-05
-4.39877344501e-07
6.17973319334e-05
-6.75300998736e-07
6.16517546253e-05
-1.0301066421e-06
6.13960365195e-05
-1.55751514982e-06
6.09446240737e-05
-2.32496571202e-06
6.01539183419e-05
-3.40401429415e-06
5.88053469013e-05
-4.84159652031e-06
-6.57685369261e-06
5.66551012743e-05
5.10061120331e-05
1.51233768251e-06
5.32137658755e-05
3.72766200101e-06
5.56967780037e-05
4.61095672967e-06
5.78811240367e-05
4.41877729612e-06
5.95536221174e-05
3.66153715794e-06
6.07241205036e-05
2.75738519358e-06
6.14958336741e-05
1.94406868182e-06
6.19853105156e-05
1.30948954489e-06
6.22884363078e-05
8.54794413356e-07
6.24735631851e-05
5.4611742928e-07
6.25857474828e-05
3.43748892356e-07
6.26534150879e-05
2.14060576906e-07
6.26940875582e-05
1.3220088416e-07
6.27184445579e-05
8.10754257884e-08
6.27329641017e-05
4.93985402774e-08
6.27415674158e-05
2.9900417613e-08
6.27466251372e-05
1.79701355501e-08
6.27495680557e-05
1.07133590864e-08
6.27512576914e-05
6.32709553157e-09
6.27522113091e-05
3.69523405513e-09
6.27527382915e-05
2.13017868302e-09
6.27530219751e-05
1.20942793874e-09
6.27531686965e-05
6.73891485772e-10
6.27532389717e-05
3.66374093337e-10
6.27532689798e-05
1.9351633278e-10
6.2753281958e-05
9.95480689709e-11
6.27532868691e-05
4.86210347471e-11
6.27532857401e-05
2.33474720144e-11
6.27532799857e-05
1.34698491515e-11
6.27532744345e-05
1.09434247907e-11
6.27532696274e-05
1.22383752957e-11
6.27532654756e-05
1.5806352698e-11
6.27532628882e-05
2.06109630175e-11
6.27532606743e-05
2.5781139885e-11
6.27532581948e-05
3.10676971299e-11
6.27532552853e-05
3.67945046857e-11
6.27532518696e-05
4.32879461578e-11
6.2753247623e-05
5.0619976778e-11
6.27532420813e-05
5.88835256077e-11
6.27532350611e-05
6.86971201315e-11
6.27532267474e-05
8.08491636583e-11
6.27532172521e-05
9.57388406178e-11
6.27532062404e-05
1.13270703386e-10
6.27531931707e-05
1.33434949743e-10
6.2753177809e-05
1.56763410672e-10
6.27531603413e-05
1.84007819688e-10
6.27531406242e-05
2.15543344886e-10
6.27531160221e-05
2.50920386378e-10
6.2753087317e-05
2.90322673131e-10
6.27530541606e-05
3.33726662817e-10
6.27530157172e-05
3.80824200894e-10
6.27529708049e-05
4.30552912097e-10
6.27529177447e-05
4.80789109143e-10
6.2752854197e-05
5.2822213002e-10
6.27527769716e-05
5.67901404396e-10
6.27526815272e-05
5.92035861416e-10
6.27525605298e-05
5.88241710982e-10
6.27524019883e-05
5.37802469519e-10
6.27521961982e-05
4.13696648573e-10
6.27519067805e-05
1.87379747517e-10
6.27514069547e-05
-3.3869335384e-10
6.27507025986e-05
-1.28870939482e-09
6.27496222378e-05
-2.78073546183e-09
6.27479493668e-05
-5.14858599145e-09
6.27453438873e-05
-8.88999449461e-09
6.27412639949e-05
-1.47528689637e-08
6.2734835204e-05
-2.38472661717e-08
6.27246690547e-05
-3.78926813322e-08
6.27085604872e-05
-5.951466317e-08
6.26830009977e-05
-9.26935139161e-08
6.26424056059e-05
-1.43416483331e-07
6.25778818748e-05
-2.20589374817e-07
6.24752565575e-05
-3.37251620764e-07
6.23119727408e-05
-5.12016604505e-07
6.20523216305e-05
-7.70455275736e-07
6.16404598584e-05
-1.14565344731e-06
6.09914804524e-05
-1.67598630829e-06
5.99837546877e-05
-2.39628860421e-06
5.84611675283e-05
-3.31900967525e-06
-4.39258658902e-06
5.62769002917e-05
5.08013790979e-05
7.10958039788e-07
5.27341248737e-05
1.79491545444e-06
5.50813439779e-05
2.26373700617e-06
5.72936375336e-05
2.20648341435e-06
5.90991374726e-05
1.85603694993e-06
6.04400511551e-05
1.41647149529e-06
6.13737250065e-05
1.01039522199e-06
6.1995763003e-05
6.87452026345e-07
6.23979938583e-05
4.52564228009e-07
6.26529387387e-05
2.91173249161e-07
6.28123560339e-05
1.84332268624e-07
6.29110883349e-05
1.15328866988e-07
6.29717858898e-05
7.15037840802e-08
6.30088639935e-05
4.39976431576e-08
6.30313758154e-05
2.68867645364e-08
6.30449569628e-05
1.63191701307e-08
6.30530927486e-05
9.83421970453e-09
6.30579269316e-05
5.87889338484e-09
6.30607717732e-05
3.48192757973e-09
6.30624266667e-05
2.04004038089e-09
6.30633761468e-05
1.18037258311e-09
6.30639120555e-05
6.73332176735e-10
6.30642082331e-05
3.77808693044e-10
6.30643670997e-05
2.07781430935e-10
6.30644491827e-05
1.11827246336e-10
6.30644899752e-05
5.93211696192e-11
6.30645076503e-05
3.16075939835e-11
6.30645133233e-05
1.82844486939e-11
6.30645140624e-05
1.32426922272e-11
6.30645127603e-05
1.26499467618e-11
6.30645106675e-05
1.45930325454e-11
6.30645083544e-05
1.82500419894e-11
6.3064506219e-05
2.28177593303e-11
6.30645043457e-05
2.77172827897e-11
6.30645024514e-05
3.30309469666e-11
6.3064500382e-05
3.89783524387e-11
6.3064498019e-05
4.58432293128e-11
6.30644951001e-05
5.37431421674e-11
6.30644912713e-05
6.2811868847e-11
6.3064486381e-05
7.35462286972e-11
6.30644805004e-05
8.65877257119e-11
6.30644736705e-05
1.02330688873e-10
6.30644656865e-05
1.20878226473e-10
6.30644562188e-05
1.4241104667e-10
6.30644450594e-05
1.67442411002e-10
6.30644320914e-05
1.96592421941e-10
6.30644171045e-05
2.30196983606e-10
6.3064399546e-05
2.68159380537e-10
6.30643788786e-05
3.10752513679e-10
6.30643543555e-05
3.58112008312e-10
6.30643249008e-05
4.10154666212e-10
6.3064288961e-05
4.66343386321e-10
6.3064244176e-05
5.25408253566e-10
6.30641869721e-05
5.85233608385e-10
6.30641121039e-05
6.42591596603e-10
6.30640117999e-05
6.92195121141e-10
6.30638745635e-05
7.25331929045e-10
6.30636837935e-05
7.28526572831e-10
6.30634168179e-05
6.80806987548e-10
6.3063059064e-05
5.45329457758e-10
6.3062438614e-05
2.81951586456e-10
6.30613532906e-05
-2.03164334827e-10
6.3059790596e-05
-1.21778187359e-09
6.30573331436e-05
-2.69092302654e-09
6.30534640608e-05
-5.02089874096e-09
6.30473887899e-05
-8.67757092476e-09
6.30378350666e-05
-1.42933906818e-08
6.30228073657e-05
-2.28649836241e-08
6.29991841529e-05
-3.58916731979e-08
6.29620959298e-05
-5.56055349902e-08
6.29039790417e-05
-8.52995028865e-08
6.2813154208e-05
-1.29764541141e-07
6.26717323099e-05
-1.95829574151e-07
6.24526401332e-05
-2.92923878418e-07
6.21156361297e-05
-4.33450732004e-07
6.16025030077e-05
-6.32520272218e-07
6.08325994145e-05
-9.06082892345e-07
5.9702223367e-05
-1.26591298574e-06
5.80941585571e-05
-1.71094509792e-06
-2.21081790713e-06
5.59123896655e-05
5.071090792e-05
4.97196217506e-11
5.2505790519e-05
3.2023333739e-11
5.47695273417e-05
-1.76287349598e-13
5.6976019893e-05
-9.52017563579e-12
5.88320644817e-05
-7.96678642677e-12
6.02485388546e-05
-2.82415641634e-12
6.12589319141e-05
2.51750068027e-12
6.1946378057e-05
6.25235953746e-12
6.23989347723e-05
8.09039373446e-12
6.26901000883e-05
8.76756523865e-12
6.2874424193e-05
8.85189628314e-12
6.29897451047e-05
8.61192888548e-12
6.3061241584e-05
7.81757529599e-12
6.31052331343e-05
6.22368981925e-12
6.31321157822e-05
3.88521380825e-12
6.31484334856e-05
1.02570419427e-12
6.31582691028e-05
-2.07166421236e-12
6.31641521794e-05
-4.94717954684e-12
6.31676403792e-05
-6.96734026849e-12
6.31696874928e-05
-7.75889780567e-12
6.31708744897e-05
-7.19902674433e-12
6.3171553063e-05
-5.49685058746e-12
6.31719341663e-05
-3.29676611315e-12
6.31721431415e-05
-1.07819593183e-12
6.31722542629e-05
9.89704037046e-13
6.31723110889e-05
2.93692040271e-12
6.31723382382e-05
4.89926801109e-12
6.31723498882e-05
7.01982736065e-12
6.31723539278e-05
9.57255106859e-12
6.31723544347e-05
1.24459429236e-11
6.31723534069e-05
1.57808785722e-11
6.31723519976e-05
1.97071075789e-11
6.31723506599e-05
2.41694363229e-11
6.31723493931e-05
2.90037156526e-11
6.31723481999e-05
3.42798805119e-11
6.31723470409e-05
4.02728447146e-11
6.31723458171e-05
4.72771046157e-11
6.31723443131e-05
5.54542131175e-11
6.31723422863e-05
6.49611149068e-11
6.31723396574e-05
7.61785432392e-11
6.3172336495e-05
8.96241741348e-11
6.31723328263e-05
1.05722992554e-10
6.31723285244e-05
1.24752244707e-10
6.31723234187e-05
1.47022486443e-10
6.31723174069e-05
1.73013567648e-10
6.31723103763e-05
2.0325012394e-10
6.31723020947e-05
2.38110430325e-10
6.31722921262e-05
2.77786688126e-10
6.31722800085e-05
3.22641259624e-10
6.31722650348e-05
3.72973440353e-10
6.31722461027e-05
4.29008704078e-10
6.31722214787e-05
4.90802215864e-10
6.31721884382e-05
5.58130861893e-10
6.31721428798e-05
6.30474612778e-10
6.31720785228e-05
7.0681911675e-10
6.31719854766e-05
7.85200343527e-10
6.31718484223e-05
8.62316435415e-10
6.31716439511e-05
9.33011962677e-10
6.31713355445e-05
9.89343459764e-10
6.3170865307e-05
1.01568548794e-09
6.31701692309e-05
9.78074563778e-10
6.31691185463e-05
8.47592005996e-10
6.31672905329e-05
6.10425513142e-10
6.31643257249e-05
2.74061056116e-10
6.31596466321e-05
-3.41673012429e-10
6.31524259863e-05
-1.45673048456e-09
6.31410932929e-05
-2.9606265107e-09
6.31233061961e-05
-5.07791490017e-09
6.30954441172e-05
-8.02973724726e-09
6.30519128296e-05
-1.20745184284e-08
6.29841226037e-05
-1.75094010864e-08
6.28790016434e-05
-2.46431947889e-08
6.27168973415e-05
-3.37249602874e-08
6.24687666075e-05
-4.4793039094e-08
6.2092719207e-05
-5.74029456182e-08
6.15303990319e-05
-7.02001059123e-08
6.07046373246e-05
-8.0321306145e-08
5.95215446444e-05
-8.28207530607e-08
5.78819940939e-05
-7.1394667341e-08
-3.86922468803e-08
5.57098684013e-05
5.07109068802e-05
-7.10857636211e-07
5.25057893301e-05
-1.79485116445e-06
5.47695257826e-05
-2.26373730025e-06
5.69760192795e-05
-2.20650333653e-06
5.88320647087e-05