/*--------------------------------*- C++ -*----------------------------------*\
| =========                 |                                                 |
| \\      /  F ield         | OpenFOAM: The Open Source CFD Toolbox           |
|  \\    /   O peration     | Version:  2106                                  |
|   \\  /    A nd           | Website:  www.openfoam.com                      |
|    \\/     M anipulation  |                                                 |
\*---------------------------------------------------------------------------*/
FoamFile
{
    version     2.0;
    format      ascii;
    arch        "LSB;label=32;scalar=64";
    class       volScalarField;
    location    "0.205";
    object      p;
}
// * * * * * * * * * * * * * * * * * * * * * * * * * * * * * * * * * * * * * //

dimensions      [0 2 -2 0 0 0 0];

internalField   nonuniform List<scalar> 
11200
(
149.605077412
146.676475731
145.562625331
145.035294829
144.667966131
144.373189008
144.111546635
143.863009681
143.618492816
143.373426359
143.125113189
142.871798663
142.612250804
142.34553402
142.070881408
141.787619508
141.495122469
141.192784268
140.880006022
140.556199437
140.220740704
139.872980673
139.512260918
139.137913593
138.749253193
138.345578521
137.926173483
137.490307748
137.037237496
136.566206069
136.076444536
135.567172168
135.037596545
134.486913752
133.914309083
133.31895823
132.700027188
132.05667246
131.388041435
130.69327278
129.97149677
129.221835544
128.443403366
127.635306687
126.79664402
125.926505623
125.023973016
124.088118303
123.118003137
122.112677184
121.071175923
119.99251774
118.875700215
117.719695404
116.523443785
115.285846406
114.005754815
112.68195843
111.313168792
109.89799983
108.434942921
106.922335327
105.358319555
103.740794834
102.067350991
100.335182847
98.540980075
96.6807826978
94.7497865208
92.7420767312
90.6502642811
88.4649899368
86.1740557113
83.7612758839
81.2045660593
78.4722693318
75.5167915157
72.2655712683
68.5649499783
63.8018297649
147.812035382
146.453861413
145.66289041
145.162876834
144.771889625
144.448008327
144.163488537
143.898887639
143.643401064
143.390880391
143.137498339
142.880741365
142.618872446
142.3506151
142.074968852
141.791098841
141.498267631
141.195792354
140.883014496
140.559272125
140.223914857
139.876267121
139.515685121
139.141500733
138.753018037
138.349530107
137.930318007
137.494649571
137.041779696
136.570950744
136.081392802
135.572323591
135.0429488
134.49246816
133.920068916
133.324926774
132.706207473
132.063067478
131.394654193
130.700106344
129.978554341
129.229120549
128.450919561
127.643058273
126.804635764
125.934743013
125.032462474
124.096867464
123.12702119
122.121975246
121.080767471
120.002419177
118.885931614
117.730281449
116.534414891
115.297240058
114.017617223
112.69434663
111.326153306
109.911668116
108.449403948
106.937725722
105.374809558
103.758592534
102.086706921
100.356411535
98.5644911245
96.7071083902
94.779623853
92.7763527026
90.6902261438
88.5122880453
86.230991055
83.8311994746
81.2925182585
78.5864394902
75.6721649722
72.4918575697
68.9427188175
64.8298297299
146.816845097
146.162644847
145.610289611
145.172672629
144.80104989
144.478949435
144.189850962
143.919618474
143.659156894
143.40267734
143.14629486
142.887327795
142.623864125
142.354476864
142.078044905
141.793639587
141.500451242
141.197741232
140.884811188
140.560984142
140.225597877
139.878012675
139.517484501
139.143359699
138.754946251
138.351534665
137.93240369
137.496820081
137.044038435
136.573301354
136.083839795
135.574873733
135.045612288
134.495247981
133.922962972
133.327935349
132.709332006
132.066309938
131.398017384
130.70359389
129.982170716
129.232871172
128.454810967
127.647098308
126.808833827
125.939110397
125.037012798
124.101617207
123.131990348
122.127188114
121.086253593
120.008214514
118.892080037
117.736836577
116.541442238
115.304819595
114.025846559
112.703345161
111.336067419
109.922677488
108.461728368
106.951633243
105.390628196
103.776743524
102.107742038
100.381030684
98.5935677692
96.7417546252
94.8212769545
92.8268961066
90.752162572
88.5890137359
86.3273547907
83.9542696235
81.4530366186
78.8017943191
75.9725661265
72.933730215
69.6492990389
66.0962308803
146.267083918
145.90370275
145.503805199
145.134815436
144.797199566
144.489098013
144.203735543
143.933032377
143.670661077
143.411994658
143.153615122
142.892990976
142.628222413
142.357842162
142.080674119
141.795735731
141.50217064
141.1992026
140.886104399
140.562176
140.226726339
139.879065137
139.518551145
139.144461237
138.756084754
138.352714063
137.933627664
137.498091079
137.045357791
136.5746694
136.0852557
135.576334868
135.047114268
134.496792161
133.924558287
133.329587076
132.711046385
132.068093977
131.399877104
130.705535748
129.984201977
129.235000124
128.457047352
127.649453725
126.811322189
125.941748502
125.039821028
124.104620351
123.135218544
122.130677978
121.090049522
120.012370467
118.896661721
117.741924084
116.547133294
115.311233686
114.03313019
112.71167814
111.345670498
109.933821727
108.474749957
106.966958895
105.408786285
103.798373556
102.133618826
100.412123311
98.6311117951
96.7873321726
94.8769312604
92.8952991676
90.8368790823
88.6949417626
86.4612555504
84.1257781848
81.6764199462
79.0990812429
76.3790142312
73.5065075809
70.4851537658
67.3521229542
145.933036022
145.701240716
145.399828774
145.088852333
144.784013547
144.49199092
144.213016092
143.943890706
143.680931088
143.420847094
143.16087835
142.898787494
142.632782045
142.361412937
142.083483458
141.79797661
141.503999718
141.200743516
140.887452603
140.56340426
140.227893488
139.880223868
139.519699015
139.145608344
138.757254762
138.353922008
137.934883343
137.499401881
137.046729771
136.576108064
136.086766648
135.577924374
135.048789096
134.498557413
133.92641532
133.331539077
132.713094155
132.070238467
131.402122598
130.707886939
129.98666606
129.237586624
128.459768246
127.652323767
126.814359382
125.944974696
125.0432627
124.108309568
123.139194044
122.134986899
121.094749449
120.017531622
118.902369754
117.748283469
116.554271371
115.319305272
114.042322393
112.722218881
111.357837286
109.947957368
108.491277408
106.986384245
105.431741637
103.825654736
102.166229904
100.451325407
98.6784937726
96.8449129283
94.9473032226
92.9818305103
90.9439982968
88.8285421852
86.6293537568
84.3395141041
81.9516019967
79.4586074723
76.8563330746
74.1492193487
71.358625596
68.5352477044
145.729643606
145.55374174
145.312547484
145.045222414
144.768036291
144.491398898
144.219710067
143.95320916
143.690444563
143.429436195
143.168149196
142.904716582
142.637512943
142.365147468
142.086427253
141.80031457
141.505887336
141.202306097
140.88878803
140.564587232
140.228980188
139.88125493
139.520702009
139.146611698
138.758273468
138.354966626
137.935961786
137.500520015
137.047891973
136.577317467
136.088025401
135.579233784
135.050149902
134.499970476
133.927882158
133.333062237
132.714679245
132.071892908
131.403854429
130.709708092
129.988589331
129.239625532
128.461938407
127.654643337
126.816849919
125.947662303
125.046179135
124.111493531
123.142692875
122.138857881
121.099061861
120.022369631
118.907835649
117.754501545
116.561392833
115.327515019
114.051849829
112.733345377
111.37090985
109.963395997
108.50958676
107.008189001
105.457819364
103.856961824
102.203949346
100.496932169
98.7338394142
96.912337318
95.0297859468
93.0831997121
91.0692228376
88.9841439616
86.8239970345
84.5848410291
82.2633912031
79.8582962188
77.3726246137
74.818532256
72.2229710116
69.6330439989
145.606526912
145.450919505
145.244618282
145.008057072
144.752583085
144.489305043
144.224693393
143.961186357
143.699054634
143.437470386
143.175099641
142.91046597
142.642139662
142.3688122
142.089311409
141.802589689
141.507702074
141.203782676
140.890023392
140.565656202
140.229939166
139.882145761
139.521557098
139.147455632
138.759122539
138.35583215
137.936852226
137.501441654
137.048849583
136.578314968
136.089066327
135.580321643
135.051288445
134.501164206
133.929136793
133.334384414
132.716076017
132.073372143
131.405424896
130.71137776
129.990366059
129.241521005
128.46396871
127.656828899
126.819215933
125.950239234
125.049003833
124.114610632
123.146156414
122.142733475
121.103429168
120.027325688
118.913498708
117.761015685
116.568933464
115.33629485
114.062124073
112.745426147
111.385176907
109.980313739
108.529736399
107.032285106
105.486730621
103.89176038
102.245962684
100.547808361
98.7956330432
96.987622834
95.1218081246
93.1960747903
91.2082090578
89.1560052177
87.037484557
84.8513152029
82.5975669121
80.2789988872
77.9031627114
75.4856613393
73.0533774806
70.6456770175
145.532447339
145.382437479
145.195682559
144.979578297
144.739873744
144.487054327
144.228419248
143.967683168
143.706318583
143.444399095
143.181183903
142.915549657
142.646255907
142.37208144
142.09188274
141.804609942
141.509301521
141.205070088
140.891086012
140.566562004
140.230739969
139.882880461
139.52225447
139.14813642
138.759802635
138.356522446
137.937560855
137.502174708
137.049611802
136.579110299
136.089898322
135.581193784
135.0522044
134.502127896
133.930152319
133.335456368
132.717209823
132.074573673
131.406700984
130.712738136
129.991826631
129.243099864
128.465684643
127.658704154
126.821277435
125.952519764
125.051543293
124.11745753
123.14936965
122.146384789
121.107606271
120.032135011
118.91906941
117.76750462
116.5765314
115.345234714
114.072691444
112.757969806
111.40011878
109.998172211
108.551138272
107.057997108
105.517694138
103.929132563
102.291168063
100.602605246
98.8621986007
97.068662143
95.2206946263
93.3170315155
91.3565411571
89.3383938368
87.2623449869
85.129208206
82.9415986318
80.7050524731
78.4296102672
76.1318834267
73.836561132
71.5756624434
145.490171074
145.340723691
145.164308936
144.960572084
144.731041258
144.485335111
144.230977593
143.972341772
143.711637562
143.449545946
143.185751081
142.919395179
142.649386766
142.374577219
142.093849799
141.806156304
141.510524671
141.20605231
140.891893789
140.567247421
140.231342914
139.883430932
139.522774756
139.148643787
138.760306861
138.357033337
137.938085105
137.502717272
137.050176666
136.579700896
136.090517817
135.581845342
135.052891405
134.502854134
133.930922158
133.336274996
132.718083513
132.075510455
131.407711255
130.713834412
129.993020203
129.244405659
128.467122647
127.6602987
126.82305788
125.954521662
125.053809791
124.12004106
123.152333931
122.149807108
121.111580151
120.036774106
118.924511916
117.773918547
116.584121
115.354248028
114.083429541
112.770795247
111.415478111
110.016608636
108.573315428
107.084724793
105.549960748
103.968146506
102.338408996
100.659887849
98.931752521
97.1532315972
95.323662324
93.4425721764
91.5098071231
89.5257344153
87.4915509546
85.409749639
83.2847789844
81.123937996
78.9384822227
76.7448313287
74.5650403581
72.4253009487
145.470894724
145.321017178
145.149055104
144.951121087
144.726561705
144.484444971
144.232312409
143.974806163
143.714481727
143.452323233
143.18823547
142.921502762
142.651115566
142.375966424
142.094954681
141.807034145
141.511227739
141.206625035
140.892372248
140.56765999
140.231711401
139.883771808
139.523100246
139.148962809
138.760626996
138.357359428
137.938421059
137.503066284
137.050541508
136.580084221
136.090922268
135.582273768
135.053347043
134.503340785
133.931444377
133.336838289
132.718694537
132.076177165
131.408442766
130.714641162
129.993917149
129.245410137
128.468255246
127.661584271
126.824526589
125.956210182
125.05576271
124.122312539
123.154989716
122.152927022
121.11526115
120.041133944
118.929693566
117.780095587
116.591504311
115.363093803
114.094049622
112.783568407
111.430863748
110.03516702
108.595725881
107.111813525
105.582733464
104.007827846
102.386490807
100.718188101
99.0024871779
97.239101141
95.427955435
93.5692873924
91.6637904344
89.7128337796
87.7187612033
85.6853272809
83.6182415947
81.5258532227
79.4198916955
77.3161201148
75.2342401628
73.1961900693
145.470897385
145.321033314
145.149082187
144.951157403
144.726606482
144.484497363
144.232371484
143.974871088
143.71455181
143.452397909
143.188314282
142.921585351
142.651201655
142.37605582
142.095047269
141.807129881
141.511326643
141.206727178
140.892477749
140.567769015
140.231824177
139.883888639
139.523221528
139.149089053
138.760758888
138.357497686
137.938566585
137.503220196
137.050705175
136.580259176
136.091110516
135.582477769
135.053569788
134.503585913
133.931716294
133.337142301
132.719037025
132.076565855
131.408887212
130.715153322
129.994511082
129.246102904
128.469067611
127.662541441
126.825659174
125.957555377
125.057365723
124.124228266
123.15728478
122.155682273
121.118574733
120.045125005
118.934506743
117.7859065
116.598525941
115.371584495
114.104322396
112.796003209
111.445922221
110.053408
108.617828998
107.138602335
105.61520674
104.047196423
102.434221299
100.776053204
99.0726243589
97.3240849116
95.5308815444
93.6938669985
91.8144870073
89.8950044567
87.9385521408
85.9497581895
83.9351396762
81.9036016152
79.8669357528
77.8401682551
75.8412130608
73.889175941
145.490179107
145.340772469
145.164390786
144.960681778
144.731176445
144.485493055
144.231155457
143.972537081
143.711848253
143.44977033
143.1859878
142.919643159
142.649645187
142.374845506
142.094127612
141.80644352
141.510821354
141.20635868
140.8922102
140.567574373
140.231681089
139.883781228
139.523138329
139.149022182
138.760702041
138.357447443
137.938520797
137.503177809
137.050666025
136.580223909
136.091080423
135.582454792
135.05355655
134.503585771
133.931733428
133.33718186
132.719105306
132.076670561
131.409037719
130.715361044
129.994789894
129.246469677
128.469542833
127.663149981
126.82643125
125.958527727
125.058582976
124.125744589
123.159165889
122.158007917
121.12144171
120.048650779
118.938833806
117.791207766
116.605010854
115.37950707
114.113990698
112.807791411
111.460280406
110.070881819
108.63908238
107.164435753
105.646584937
104.085281425
102.480410502
100.832029343
99.1404344988
97.4061940065
95.6301982266
93.813824866
91.9590353214
90.0685531099
88.1463372468
86.1976430403
84.2294650696
82.2509604577
80.2738077915
78.3124196059
76.3835238453
74.5045742645
145.532460924
145.382520017
145.195820821
144.9797632
144.740101163
144.487319537
144.228717436
143.96801018
143.706670974
143.444774058
143.181579187
142.915963492
142.646686947
142.372528748
142.092345768
141.805088502
141.509795729
141.205580316
140.891612853
140.567106299
140.231302878
139.883463486
139.522859447
139.148765985
138.76045962
138.357210549
137.938284485
137.502939215
137.050423721
136.579977612
136.090830772
135.582203241
135.053305321
134.503337866
133.931492696
133.336953117
132.718894517
132.076485059
131.408886478
130.71525501
129.994742391
129.246496889
128.469664425
127.663389867
126.826818517
125.95909774
125.059378678
124.126818088
123.160580414
122.159840218
121.123784928
120.051617888
118.942561771
117.795862542
116.610793524
115.38666106
114.122810646
112.81863427
111.473578726
110.087155819
108.658957025
107.188669417
105.676093561
104.121170123
102.524012989
100.88493177
99.2044727153
97.4835125232
95.7233701058
93.9258563968
92.0934247105
90.2293381328
88.3379045477
86.4247273841
84.4970271132
82.5639781058
80.6370250463
78.7301206883
76.8594071081
75.0418118318
145.606546411
145.451037942
145.244816022
145.008320572
144.752906127
144.4896807
144.225114761
143.961647562
143.699550846
143.437997692
143.17565492
142.911046778
142.642744159
142.369439114
142.089960002
141.803259706
141.508393669
141.204496344
140.890759929
140.566416742
140.230725276
139.882959554
139.522401237
139.148333521
138.76003815
138.356790483
137.937859323
137.502504838
137.049977805
136.579519203
136.090359991
135.581721105
135.052813647
134.502839254
133.930990583
133.336451877
132.718399606
132.07600323
131.408426049
130.714826178
129.994357596
129.246171266
128.469416382
127.663241794
126.826797643
125.95923715
125.059718543
124.127407165
123.161477892
122.161117959
121.125530123
120.053936241
118.945581422
117.799738557
116.615713816
115.392852968
114.130549113
112.828251602
111.485476736
110.101820314
108.676971595
107.210735027
105.703049134
104.154013012
102.563919077
100.93331033
99.2630191879
97.5542267979
95.8085443776
94.028114864
92.2157368696
90.3750105925
88.5105169767
86.6280304113
84.7347806602
82.8397524812
80.954027404
79.0911790883
77.2672258227
75.4995886048
145.729669679
145.553899774
145.312809891
145.045570279
144.768460811
144.491890638
144.220259897
143.953809456
143.69108913
143.430120049
143.168868388
142.905468046
142.638294389
142.36595733
142.087264626
141.801179127
141.506779217
141.203225803
140.88973637
140.56556531
140.229989384
139.88229722
139.521781893
139.147735014
138.759444737
138.356191467
137.937247435
137.50187537
137.049327971
136.578847653
136.089666477
135.581006269
135.052078922
134.502086855
133.930223551
133.335674134
132.717616021
132.075219769
131.407650024
130.714066584
129.993625526
129.245480359
128.468783343
127.662687001
126.826345872
125.958918479
125.059569464
124.127471961
123.161810331
122.161783288
121.126607447
120.055521368
118.947790397
117.802711718
116.619621
115.397899525
114.136983293
112.836373076
111.495646556
110.114473005
108.69263038
107.230025775
105.726720636
104.182961271
102.599213767
100.976206273
99.3149818824
97.616962686
95.8840233082
94.1185766974
92.3236776606
90.5031437629
88.6616980763
86.8051307465
84.9405023477
83.0764059992
81.2233559413
79.3944341121
77.6056759564
75.8757637278
145.933069351
145.701443209
145.400162335
145.089291559
144.784546366
144.492604967
144.213699871
143.944634845
143.681728096
143.421691006
143.161764482
142.899712256
142.633742816
142.362407994
142.084511904
141.799038262
141.505094952
141.201873066
140.888617362
140.564605336
140.229132493
139.881502024
139.521018403
139.146982321
138.758687169
138.355418413
137.936451733
137.501052348
137.048474773
136.577962747
136.088749324
135.580057127
135.051098785
134.501077461
133.92918744
133.334614751
132.716537815
132.074128259
131.406551895
130.712969836
129.992539732
129.244417145
128.467756933
127.661714805
126.825449189
125.958123328
125.058907567
124.126981926
123.161539082
122.161787808
121.126956883
120.056299575
118.949098955
117.804673654
116.62238519
115.401645867
114.141927978
112.842776566
111.503822538
110.124798454
108.705557455
107.246095879
105.74657983
104.207376858
102.629093329
101.01261875
99.3591761762
97.6703820748
95.9483152152
94.1955933318
92.4154579432
90.6118666246
88.7895929002
86.9543328328
85.1128365084
83.2730963937
81.4447315876
79.6398943182
77.8741001192
76.1672051579
146.267124527
145.903953381
145.504212431
145.135346412
144.797838247
144.489828627
144.204544121
143.933907862
143.671594771
143.412979722
143.154646253
142.894064176
142.629334868
142.358992185
142.081861126
141.796960218
141.503434165
141.200507687
140.88745406
140.56357414
140.228182139
139.880594377
139.520126717
139.146086417
138.757773244
138.354476959
137.935476354
137.500038953
137.047420835
136.576866782
136.087610623
135.578875613
135.049874883
134.499812042
133.927881839
133.333270941
132.715158672
132.072717614
131.405114734
130.711512782
129.991071483
129.242947979
128.466299259
127.660283628
126.824062634
125.956803326
125.057680714
124.125880538
123.160602453
122.161063532
121.126502361
120.056184197
118.949406566
117.80550562
116.623863804
115.403918899
114.145175339
112.84721515
111.509712997
110.132453631
108.715352069
107.258477352
105.762080535
104.226627548
102.652837426
101.041726769
99.3946602923
97.7134078837
96.0002071934
94.2578303668
92.4896530016
90.6997213322
88.8928109033
87.0744721364
85.2510676226
83.4298120242
81.619003785
79.8290180619
78.0730640113
76.3697819871
146.816897801
146.162957781
145.610780542
145.173300691
144.801795345
144.479793229
144.19077692
143.920614088
143.660212414
143.403785107
143.147448879
142.888523437
142.625097921
142.355746373
142.079348616
141.794976942
141.501822945
141.19915009
140.886262367
140.562484221
140.227147444
139.879581676
139.519107871
139.145045758
138.756699848
138.35336315
137.934317014
137.498830827
137.046162167
136.575556775
136.086249178
135.577463242
135.048412693
134.49830173
133.926325624
133.331671162
132.713516775
132.071036259
131.403397528
130.70976392
129.989295692
129.241152178
128.464492266
127.658476368
126.822268596
125.955039108
125.055966637
124.124241351
123.159068009
122.159670088
121.125294327
120.055215553
118.948742718
117.805225752
116.624063542
115.404713247
114.146701552
112.849638763
111.513233125
110.137309081
108.721828578
107.26691597
105.77288716
104.240283355
102.669909906
101.062880425
99.4206664438
97.745151648
96.0386893268
94.3041652591
92.5450528282
90.7654616374
88.9701640549
87.1645882141
85.3547498717
83.5470346124
81.7480986852
79.9654925222
78.2063187789
76.4792387135
147.812135544
146.454319943
145.663574009
145.163732625
144.772894417
144.449141278
144.164732632
143.900229855
143.644831269
143.392390579
143.139082126
142.882393587
142.620588797
142.352391769
142.076802137
141.79298473
141.500201247
141.197767101
140.885024963
140.561326083
140.226010902
139.878429813
139.517930783
139.143830374
138.755436867
138.352046659
137.932942759
137.497393518
137.044658214
136.573984076
136.084606219
135.575748842
135.046625979
134.496442145
133.924392993
133.329666201
132.71144295
132.068896078
131.401193599
130.707499765
129.986976005
129.238782161
128.462078118
127.656025679
126.819790686
125.952545391
125.053471057
124.121760927
123.156623595
122.157286962
121.123002942
120.053052717
118.946752873
117.803462608
116.62259206
115.403612391
114.146067271
112.849585537
111.513898256
110.138857174
108.72445645
107.270858108
105.778421598
104.247737993
102.679669204
101.075392339
99.4364488784
97.7647964595
96.0628622952
94.3336204325
92.5806187068
90.808025133
89.0206443096
87.2238935406
85.4236693435
83.625837298
81.8359258335
80.0586939606
78.2889434493
76.4970918075
149.605244166
146.677146785
145.563619632
145.036550112
144.669452086
144.37488095
144.113425964
143.865062884
143.620710062
143.375800643
143.127639792
142.874474844
142.615075723
142.348508818
142.074009332
141.790905947
141.498574823
141.196411266
140.883812641
140.560171388
140.224882009
139.877304636
139.51677029
139.142613642
138.754152511
138.350687726
137.93150559
137.4958813
137.04307263
136.572325338
136.082874568
135.573944693
135.04474984
134.494494571
133.92237452
133.32757705
132.709282182
132.066663768
131.398890498
130.705126992
129.984535066
129.236275159
128.459507856
127.653395763
126.817105673
125.949810958
125.050694222
124.118950281
123.153789615
122.154442402
121.120163345
120.050237025
118.943984034
117.800768315
116.620005638
115.401173681
114.143823786
112.847594931
111.512229842
110.137593946
108.723697572
107.270721866
105.779048828
104.249295999
102.682355997
101.079441107
99.4421328164
97.7724388923
96.0728553457
94.3463882624
92.5966429302
90.8278562973
89.0449174122
87.2533453827
85.4591878975
83.6689465907
81.8890487658
80.1242973721
78.3542823358
76.4544305448
56.4065329764
52.8546201059
50.4633710418
48.50640504
46.8351057634
45.3792703346
44.0948513384
42.9520506367
41.9290888648
41.0091118098
40.1786165612
39.4265215686
38.7435756746
38.1219587863
37.5549971244
37.036950756
36.562848289
36.1283559223
35.7296744005
35.3634544575
35.0267279903
34.7168529339
34.4314684242
34.1684578624
33.9259174104
33.7021306459
33.4955460406
33.304758744
33.1284935306
32.9655906331
32.8149929065
32.6757358632
32.546937816
32.4277892322
32.3175451932
32.2155171043
32.1210688249
32.0336100817
31.9526022236
31.8776324146
31.8084624481
31.7445218449
31.685381813
31.6306564132
31.5799828739
31.533115585
31.489626804
31.4494693719
31.4122417829
31.37776242
31.3458242956
31.3162256398
31.2887734114
31.2633022573
31.2396532576
31.217678584
31.1972436124
31.1782242039
31.160504199
31.1439739466
31.128532882
31.1140902696
31.100561885
31.0878695527
31.075940206
31.0647069328
31.0541076984
31.0440860384
31.0345897025
31.0255711963
31.0169868862
31.0087972768
31.0009749146
30.9934772462
30.9862733416
30.979336798
30.9726392681
30.9661552364
30.9598650787
30.9537572429
30.9478179128
30.9420196912
30.9363452528
30.9307795153
30.9253092579
30.919924028
30.9146138693
30.9093686685
30.9041796997
30.8990398351
30.8939419481
30.8888794324
30.8838468538
30.8788388747
30.8738497663
30.8688752692
30.8639125733
30.8589580555
30.8540071303
30.8490566429
30.8441048086
30.8391491106
30.834186247
30.829213722
30.8242302407
30.8192342701
30.8142239559
30.809197748
30.8041547673
30.7990945197
30.7940160357
30.7889185873
30.7838023556
30.778667378
30.7735136673
30.7683422325
30.7631552064
30.7579549375
30.7527438592
30.7475252352
30.7423031464
30.7370820396
30.7318677958
30.7266668945
30.7214878077
30.7163423988
30.7112458895
30.7062169831
30.7012788678
30.6964591843
30.6917902034
30.6873097506
30.6830606188
30.6790930144
30.6754620671
30.6722330356
30.6694799321
30.6672872848
30.6657651566
30.6650286449
30.6653414693
30.6668633004
30.6697693446
30.6740323196
30.6787939101
30.6805772205
30.6712332795
30.6292365338
30.5144862213
30.2564647708
29.7498113041
28.8605094577
27.4525351741
25.4283091987
22.7582717077
19.4979889566
15.7696785548
11.5500005965
6.56512814787
1.55868348014
59.5880547723
55.5352080692
52.8234689319
50.6716375026
48.8704953804
47.321602502
45.9666762282
44.7683865016
43.7004520158
42.7431333488
41.8809981794
41.1016297718
40.394829858
39.7520908481
39.1662315514
38.6311330201
38.1415337824
37.6928758929
37.2811870856
36.9029753822
36.5551626289
36.2350127761
35.9400883388
35.6682067062
35.4174113181
35.185934238
34.9721845113
34.7747203719
34.5922342093
34.4235365552
34.2675450508
34.1232730831
33.9898197891
33.8663603945
33.7521388671
33.6464627857
33.54869844
33.4582675477
33.3746305399
33.2972606201
33.2255617082
33.1592430311
33.0978510451
33.0410392445
32.9884684065
32.9398394318
32.8947607875
32.8531236798
32.8145396011
32.7787963864
32.7456865839
32.7150047266
32.686557947
32.660177458
32.6356987004
32.6129731612
32.5918546963
32.5722118036
32.5539239334
32.5368771852
32.5209701558
32.5061084985
32.4922005659
32.4791635771
32.4669231875
32.4554082463
32.4445562805
32.434308394
32.4246108564
32.4154118288
32.4066661802
32.3983274157
32.3903507354
32.3827093328
32.3753694704
32.368302467
32.3614811395
32.3548814118
32.3484795208
32.3422509177
32.3361794207
32.3302504012
32.3244500609
32.31876369
32.313178271
32.3076827988
32.3022670181
32.2969202112
32.2916335449
32.2863995978
32.2812112729
32.2760613401
32.2709444864
32.2658549723
32.2607865009
32.2557350451
32.2506974133
32.2456693802
32.2406466902
32.2356251017
32.2306036588
32.2255788144
32.2205465865
32.2155057098
32.2104525661
32.205387071
32.2003060442
32.1952069939
32.1900905934
32.1849534545
32.1797955015
32.1746162452
32.1694130633
32.1641878722
32.1589396724
32.1536670429
32.1483739732
32.1430617731
32.1377304452
32.1323850468
32.1270285204
32.1216645791
32.1162974973
32.1109351352
32.1055844733
32.10025758
32.0949699755
32.0897379777
32.0845893942
32.0795469801
32.0746466272
32.0699243645
32.0654238401
32.0611964021
32.0572945858
32.0537875363
32.0507462929
32.0482547456
32.0464185371
32.0453335427
32.045212518
32.0461764723
32.0482924583
32.0512929868
32.0538303584
32.0514405131
32.0341609676
31.9773581597
31.836252913
31.5344037545
30.9606927614
29.9781759249
28.4536161451
26.2988496344
23.4961440525
20.1058644788
16.2482164883
11.9146260446
6.8453285666
1.68912654635
61.7956634143
57.8621490206
54.9952868957
52.7119454799
50.8108450558
49.1854680302
47.7707066165
46.5244474278
45.417162064
44.4268852245
43.5366316619
42.7328810161
42.0046378826
41.3428116949
40.7397887578
40.1891248967
39.6853117012
39.2236002437
38.7998698962
38.4105102494
38.0523475043
37.7225683023
37.4186704863
37.1384162826
36.8798025135
36.6410216469
36.4204469992
36.2166057849
36.0281626647
35.8539035486
35.6927232327
35.5436139081
35.4056549695
35.2780020934
35.1598795052
35.0505743273
34.9494290475
34.855837426
34.7692368835
34.6891198615
34.6149754023
34.5462581789
34.4826372758
34.423791554
34.3693503445
34.3189852618
34.2723566401
34.2292460328
34.189329302
34.1523766586
34.1181511573
34.0864467754
34.0570659005
34.0298285823
34.0045616281
33.981102675
33.9593109718
33.9390514617
33.9201999316
33.902638325
33.8862585618
33.8709577224
33.8566501052
33.8432487951
33.830675656
33.8188563893
33.8077271365
33.7972257641
33.7872883494
33.7778669736
33.768919512
33.7604004665
33.7522706467
33.7444926946
33.7370305141
33.7298549521
33.7229369458
33.7162503418
33.7097724363
33.7034811324
33.6973572213
33.6913824276
33.6855406668
33.6798165936
33.6741969338
33.6686696486
33.663223606
33.6578479645
33.6525335926
33.6472723598
33.6420571471
33.6368806818
33.6317369669
33.6266200194
33.621523594
33.6164434513
33.6113758889
33.6063161401
33.6012604122
33.5962044384
33.5911465104
33.5860828998
33.5810095452
33.5759256996
33.5708270914
33.5657126695
33.560580028
33.5554262275
33.5502512469
33.5450516713
33.5398268416
33.5345764593
33.5292973175
33.5239904284
33.5186553608
33.5132899102
33.507896687
33.5024776267
33.4970321065
33.4915638556
33.4860759248
33.4805711793
33.4750531717
33.4695299254
33.4640081216
33.4584987509
33.4530185353
33.4475822507
33.4422170392
33.436946512
33.4318052848
33.4268300068
33.4220624235
33.4175539603
33.4133564592
33.4095374083
33.4061700698
33.4033369872
33.4011326904
33.3995886201
33.3989180287
33.3991724118
33.4002899349
33.4017242217
33.4015921909
33.3943617128
33.3683374526
33.2956244247
33.1270653138
32.7807386967
32.1405716989
31.0676298447
29.431957696
27.1541711703
24.226637069
20.7126951139
16.7291899574
12.2814899983
7.1248728777
1.81724297147
63.5999817511
59.8753198416
56.9716875143
54.6171624793
52.6479934027
50.9647906237
49.5023117432
48.2165760471
47.0762315448
46.0578512389
45.1433379396
44.3183400456
43.5712434024
42.8924969024
42.2741412826
41.7094713895