/*--------------------------------*- C++ -*----------------------------------*\
| =========                 |                                                 |
| \\      /  F ield         | OpenFOAM: The Open Source CFD Toolbox           |
|  \\    /   O peration     | Version:  2106                                  |
|   \\  /    A nd           | Website:  www.openfoam.com                      |
|    \\/     M anipulation  |                                                 |
\*---------------------------------------------------------------------------*/
FoamFile
{
    version     2.0;
    format      ascii;
    arch        "LSB;label=32;scalar=64";
    class       volScalarField;
    location    "0.185";
    object      p;
}
// * * * * * * * * * * * * * * * * * * * * * * * * * * * * * * * * * * * * * //

dimensions      [0 2 -2 0 0 0 0];

internalField   nonuniform List<scalar> 
11200
(
149.924026093
146.995424238
145.881573105
145.354241482
144.986911376
144.692132682
144.430488713
144.181950238
143.937431934
143.692364062
143.444049396
143.190733179
142.931183341
142.66446424
142.389808951
142.106543996
141.814043503
141.511701428
141.198918874
140.875107418
140.539643404
140.191877669
139.831151805
139.456797944
139.068130543
138.664448364
138.24503529
137.809160989
137.356081657
136.885040623
136.395268909
135.885985736
135.356398627
134.805703671
134.233086212
133.637722031
133.018777215
132.375408361
131.706763006
131.011980038
130.290189964
129.540515101
128.762069716
127.953960079
127.115284418
126.24513274
125.34258646
124.406717716
123.436588288
122.431248034
121.389732695
120.311061008
119.194230914
118.038214704
116.84195281
115.604345984
114.324245396
113.000440207
111.631641876
110.216464319
108.753398871
107.240782743
105.676758645
104.059225968
102.385774785
100.653599899
98.8593908436
96.9991874847
95.068185661
93.0604705916
90.968653195
88.7833742184
86.4924354747
84.079651391
81.5229383886
78.7906415179
75.8351699212
72.5839710989
68.8834286262
64.1204104083
148.130984147
146.77280995
145.981838192
145.481823472
145.090834838
144.766951974
144.482430607
144.217828214
143.962340227
143.709818162
143.456434626
143.199675971
142.937805079
142.669545422
142.393896506
142.110023444
141.817188778
141.514709598
141.201927344
140.878180175
140.542817636
140.195164195
139.834576081
139.46038515
139.071895444
138.668399998
138.249179855
137.813502861
137.360623922
136.889785387
136.400217284
135.891137273
135.361750994
134.811258182
134.238846124
133.64369063
133.024957516
132.381803345
131.713375687
131.018813511
130.297247479
129.547800119
128.769585998
127.961711791
127.123276272
126.253370179
125.351075885
124.415466764
123.445606147
122.440545815
121.399323899
120.320962117
119.204462106
118.048800706
116.852924006
115.615739784
114.336107935
113.012828475
111.644626396
110.230132555
108.76785978
107.256172912
105.693248412
104.077023525
102.405130798
100.674828724
98.8829019719
97.0255131513
95.0980228514
93.0947462731
91.0086145221
88.8306711982
86.5493687399
84.1495713226
81.6108840021
78.9047991016
75.9905183781
72.8102028427
69.2610493236
65.1481015607
147.135793815
146.481593312
145.929237315
145.491619201
145.119995057
144.797893063
144.508793046
144.238559089
143.978096109
143.721615166
143.465231203
143.206262457
142.942796818
142.673407256
142.396972633
142.112564267
141.819372457
141.516658526
141.203724086
140.879892196
140.544500637
140.19690973
139.836375435
139.462244082
139.073823616
138.670404504
138.251265489
137.815673336
137.362882656
136.892136027
136.402664343
135.893687484
135.364414526
134.81403803
134.241740201
133.646699224
133.028082068
132.385045813
131.716738886
131.022301085
130.30086393
129.551550871
128.773477553
127.965751939
127.127474368
126.257737497
125.355626055
124.420216283
123.450575023
122.445758372
121.404809743
120.326757299
119.21061056
118.055356022
116.859951595
115.62331951
114.344337382
113.021827069
111.65454055
110.2411419
108.780184121
107.270080401
105.709067283
104.095174803
102.426165991
100.699447891
98.9119785317
97.0601592096
95.1396757236
93.1452894292
91.0705506509
88.9073964144
86.6457315416
84.2726395312
81.7713982511
79.1201451512
76.2909015546
73.2520418468
69.9675734897
66.4144414039
146.586032492
146.222651064
145.822752769
145.45376191
145.116144685
144.808041636
144.522677654
144.251973039
143.98960035
143.730932549
143.472551541
143.211925721
142.947155201
142.676772659
142.399601956
142.114660517
141.821091946
141.518119968
141.205017355
140.881084081
140.545629104
140.197962174
139.837442044
139.46334557
139.074962053
138.671583829
138.252489397
137.816944298
137.364202028
136.893504143
136.404080353
135.895148736
135.365916625
134.815582308
134.243335634
133.648351087
133.029796572
132.386829969
131.718598724
131.024243074
130.302895346
129.553679986
128.775714058
127.968107384
127.129962637
126.260375398
125.358434
124.423219085
123.453802837
122.449247903
121.408605503
120.330913331
119.215192569
118.060444012
116.865643145
115.629733965
114.351621162
113.03016
111.664143437
110.252285806
108.79320522
107.285405342
105.727224435
104.116804204
102.4520425
100.730540354
98.9495223926
97.1057365649
95.1953298404
93.2136923534
91.1552670485
89.0133242843
86.7796320149
84.4441475345
81.9947804021
79.4174297449
76.6973458013
73.8248145394
70.803426538
67.6703477445
146.251984376
146.020188812
145.71877616
145.407798676
145.102958597
144.810934531
144.531958232
144.262831417
143.999870427
143.739785068
143.47981487
143.217722362
142.951714971
142.680343577
142.402411437
142.116901523
141.822921132
141.519660967
141.206365613
140.882312364
140.546796242
140.199120858
139.838589836
139.464492573
139.076131937
138.672791645
138.253744971
137.818255047
137.365574019
136.894942864
136.405591369
135.896738295
135.367591481
134.81734758
134.245192689
133.650303119
133.031844399
132.388974516
131.720844306
131.026594378
130.305359575
129.556266637
128.778435043
127.970977408
127.132999659
126.263601276
125.361875248
124.426907802
123.457777795
122.453556336
121.413305093
120.336074354
119.220900634
118.066803492
116.872781287
115.637805578
114.360813561
113.040700971
111.676310497
110.266421573
108.809732677
107.304831135
105.75018042
104.144085972
102.484654002
100.769742631
98.9969043356
97.1633171698
95.2657016442
93.3002236136
91.2623863175
89.1469250092
86.9477309584
84.6578848591
82.2699648514
79.7769602302
77.1746724453
74.4675412833
71.6769264149
68.853526742
146.048591687
145.872689574
145.631494651
145.364168604
145.086981255
144.810342484
144.538652229
144.272149927
144.009383988
143.748374284
143.487085859
143.223651616
142.956446049
142.68407829
142.405355402
142.119239633
141.824808869
141.521223632
141.207701087
140.883495337
140.547882898
140.200151833
139.839592706
139.465495769
139.077150464
138.673836094
138.25482329
137.819373132
137.366736246
136.896152342
136.406850215
135.898047808
135.368952415
134.818760819
134.246659747
133.651826525
133.033429725
132.390629199
131.722576331
131.028415707
130.307283031
129.558305693
128.78060522
127.973296847
127.135489895
126.266288442
125.364791158
124.430091223
123.46127622
122.457427127
121.417617642
120.34091286
119.226367327
118.073022562
116.879903843
115.646016441
114.37034151
113.051827334
111.689381965
110.281859233
108.828041291
107.326635162
105.77625761
104.17539272
102.522373216
100.815349177
99.0522497574
97.2307414019
95.3481843393
93.401592971
91.3876113518
89.3025278642
87.1423762922
84.9032153401
82.5817600576
80.1766589929
77.6909809086
75.1368827052
72.5413184684
69.9513981533
145.925474681
145.769867042
145.563565202
145.327003085
145.071527944
144.808248584
144.54363556
144.280127174
144.017994151
143.756408605
143.494036465
143.229401183
142.961072951
142.6877432
142.408239722
142.121514892
141.826623717
141.522700284
141.208936472
140.884564276
140.548841789
140.201042527
139.840447614
139.466339491
139.07799931
138.674701415
138.25571359
137.820294711
137.367693866
136.897149902
136.40789123
135.899135781
135.370091104
134.819954723
134.247914563
133.653148857
133.034826608
132.392108498
131.724146869
131.030085527
130.309059969
129.560201371
128.782635685
127.975482334
127.137855599
126.268864874
125.367615237
124.433207685
123.464739212
122.461302336
121.421984758
120.3458689
119.23203047
118.079536754
116.887444376
115.654796091
114.380616306
113.063908442
111.703649758
110.298777236
108.848190919
107.350731179
105.805168837
104.210191228
102.564386422
100.86622515
99.1140431508
97.3060267408
95.4402064891
93.5144682939
91.5265983196
89.4743906987
87.355866693
85.1696944201
82.915943896
80.5973748651
78.2215403707
75.8040460502
73.3717781833
70.9641105547
145.851394769
145.701384694
145.514629209
145.298524107
145.058818474
144.805997803
144.54736141
144.28662404
144.025258208
143.763337464
143.500120906
143.234485059
142.965189385
142.691012617
142.410811214
142.123535286
141.828223273
141.523987758
141.209999097
140.885470021
140.549642474
140.201777051
139.841144762
139.467020032
139.078679147
138.675391491
138.256422067
137.821027691
137.368456079
136.897945279
136.408723319
135.900008068
135.371007253
134.82091864
134.248930322
133.654221026
133.035960608
132.393310234
131.725423216
131.031446209
130.310520777
129.561780355
128.784351552
127.977357331
127.139916672
126.271144858
125.370154102
124.436054024
123.467952011
122.464953466
121.42616199
120.350678664
119.237601852
118.0860265
116.895043138
115.663736561
114.391183844
113.076451781
111.718590774
110.316634942
108.869592227
107.376442772
105.836132077
104.247563186
102.609591563
100.921021769
99.1806084426
97.3870658065
95.5390928713
93.6354251913
91.6749311732
89.6567809374
87.5807300581
85.4475924703
83.2599838535
81.0234416773
78.7480089089
76.4503006923
74.1550108921
71.894166373
145.809118147
145.659670562
145.483255295
145.279517669
145.049985833
144.804278502
144.54991974
144.2912827
144.030577306
143.768484479
143.50468827
143.238330769
142.968320424
142.693508569
142.412778437
142.125081794
141.829446535
141.524970038
141.210806867
140.886155363
140.55024528
140.202327323
139.84166479
139.467527086
139.079183097
138.675902159
138.256946164
137.821570174
137.369020925
136.898535922
136.409342926
135.900659804
135.371694488
134.821645129
134.249700392
133.655039844
133.036834459
132.394247175
131.726433666
131.032542715
130.311714617
129.563086321
128.785789528
127.97895163
127.14169667
126.273146167
125.372419958
124.438636963
123.47091585
122.468375576
121.430135951
120.3553181
119.243044841
118.092440925
116.902633071
115.672749826
114.401921084
113.089277036
111.733950023
110.335071142
108.891769078
107.403170199
105.868398474
104.286576901
102.656832229
100.978304063
99.2501620564
97.4716349604
95.6420603573
93.7609658305
91.82819747
89.8441224509
87.8099380509
85.7281376014
83.6031704792
81.4423373679
79.2568969205
77.0632732039
74.8835267654
72.7438568283
145.789841438
145.639963703
145.468001158
145.270066427
145.045506099
144.803388259
144.551254539
144.293747155
144.033421599
143.771261937
143.50717284
143.240438533
142.970049401
142.694897949
142.413883491
142.125959789
141.830149719
141.525542821
141.211285315
140.886567851
140.550613622
140.202667994
139.841990027
139.467845838
139.079502965
138.67622803
138.257281965
137.821919101
137.369385753
136.898919306
136.409747515
135.901088434
135.372150369
134.82213203
134.250222833
133.655603319
133.037445645
132.394914077
131.727165462
131.03334975
130.312611798
129.564090893
128.786922007
127.980236867
127.143164867
126.274834064
125.374372218
124.440907844
123.473571201
122.47149533
121.433817125
120.359678414
119.248227152
118.098618653
116.910016847
115.681595717
114.412540764
113.102049719
111.749334897
110.353628865
108.914178979
107.43025852
105.901170879
104.326257954
102.704913728
101.036603968
99.3208964055
97.5575042354
95.7463532587
93.8876807599
91.9821805312
90.0312214095
88.037148369
86.0037161967
83.9366354572
81.8442570988
79.73831404
77.6345741093
75.5527449938
73.5147725635
145.789843742
145.639979499
145.468027939
145.270102492
145.045550686
144.803440542
144.551313595
144.293812147
144.033491811
143.771336771
143.507251817
143.240521284
142.970135657
142.694987522
142.413976255
142.126055682
141.830248736
141.525645017
141.2113908
140.886676795
140.550726255
140.202784626
139.842111069
139.467971823
139.079634608
138.676366074
138.257427329
137.822072918
137.369549413
136.899094345
136.409935927
135.901292653
135.37237335
134.822377376
134.250494931
133.655907482
133.037788291
132.39530297
131.727610163
131.033862202
130.31320596
129.564783724
128.787734214
127.98119366
127.144296893
126.276178583
125.375974523
124.442822937
123.475865836
122.474250466
121.437130933
120.363669992
119.253041013
118.104430168
116.917038866
115.690086496
114.422813546
113.114485022
111.764393925
110.371869582
108.936281797
107.457047185
105.933644159
104.365626677
102.752644364
101.094468856
99.3910325566
97.6424860905
95.8492766826
94.012257824
92.1328811618
90.2133957885
88.2569418559
86.2681489078
84.2535347765
82.2220062563
80.1853583208
78.1586216525
76.159716253
74.2077549518
145.809125118
145.659718324
145.483336235
145.279626607
145.050120453
144.804436122
144.550097549
144.291478204
144.030788376
143.768709336
143.504925482
143.238579242
142.968579353
142.693777386
142.413056775
142.125369471
141.829743549
141.52527656
141.211123233
140.886482075
140.55058303
140.202677026
139.842027641
139.467904705
139.079577534
138.676315636
138.257381391
137.822030446
137.369510258
136.899059167
136.409906004
135.90126989
135.372360327
134.822377415
134.250512209
133.655947173
133.037856731
132.395407882
131.727760914
131.034070163
130.313484928
129.565150503
128.78820925
127.981801813
127.145068408
126.277150256
125.377191073
124.444338661
123.477746589
122.476576089
121.439998228
120.367196332
119.257368743
118.109731931
116.923524046
115.69800903
114.43248137
113.126271367
111.778750784
110.389343184
108.957534466
107.48287984
105.965021411
104.403710239
102.798831468
101.150442819
99.4588451492
97.7245988462
95.9485975499
94.1322193679
92.2774198449
90.3869362824
88.4647205858
86.516027602
84.5478532114
82.5693563175
80.5922185812
78.6308567243
76.702004535
74.8231231906
145.851406614
145.70146556
145.514765979
145.298707775
145.059044981
144.806262499
144.547659517
144.286951364
144.025611201
143.763713183
143.500516997
143.234899715
142.965621269
142.691460793
142.411275087
142.12401458
141.828718003
141.524498222
141.21052586
140.886013926
140.550204694
140.202359108
139.841748548
139.467648301
139.079334897
138.676078553
138.257144941
137.82179179
137.369267977
136.898812975
136.409656515
135.901018528
135.372109279
134.822129659
134.250271598
133.655718562
133.037646116
132.395222608
131.727609922
131.033964334
130.313437528
129.565177673
128.788330631
127.9820413
127.145455105
126.277719587
125.37798609
124.445411614
123.479160842
122.478408461
121.442341818
120.370163989
119.261097283
118.114387192
116.929306996
115.705163082
114.441301222
113.137113895
111.792048935
110.405616978
108.977409807
107.507114483
105.994531674
104.439602276
102.842438224
101.203349653
99.5228792961
97.8019122168
96.0417643999
94.2442463452
92.4118108954
90.5477215606
88.6562857195
86.7431073469
84.8154076612
82.8823620076
80.9554175125
79.0485305725
77.1778484231
75.3603059842
145.925491805
145.76998319
145.563760902
145.327264905
145.071849763
144.808623565
144.544056829
144.280588798
144.018491159
143.756936918
143.494592839
143.229983125
142.961678615
142.688371294
142.408889443
142.122185876
141.827315997
141.523414258
141.2096729
140.885324288
140.549626966
140.201855009
139.841290142
139.467215619
139.078913211
138.675658292
138.256719637
137.821357344
137.368822072
136.898354638
136.40918584
135.900536505
135.371617712
134.821631154
134.249769604
133.655217458
133.037151371
132.394740978
131.727149696
131.033535663
130.313052808
129.564852001
128.788082377
127.981892838
127.145433681
126.277858353
125.378325334
124.44600024
123.48005816
122.479686357
121.44408741
120.372482877
119.264117431
118.118263618
116.934227473
115.711354902
114.449039315
113.146730575
111.803945592
110.420280073
108.995423538
107.529179287
106.021485696
104.472441196
102.882339951
101.25172436
99.5814266108
97.8726277517
96.1269391773
94.3465041921
92.5341215852
90.6933913941
88.828894183
86.94640431
85.0531518839
83.1581219451
81.2723974136
79.4095546429
77.5856160382
75.8180092525
146.048614807
145.872844758
145.631754519
145.364514392
145.087404286
144.810833416
144.539201949
144.272750728
144.010029508
143.749059355
143.487806397
143.22440449
142.957228946
142.684889606
142.406194147
142.120105352
141.825701565
141.522143704
141.20864929
140.884472765
140.548890942
140.201192506
139.840670602
139.466616899
139.078319589
138.675059094
138.256107622
137.820727824
137.36817226
136.897683155
136.408492397
135.89982172
135.370883028
134.820878818
134.249002676
133.654439854
133.036367934
132.39395766
131.726373802
131.032776185
130.312320803
129.564161051
128.787449141
127.981337683
127.144981417
126.277539135
125.378175778
124.446064762
123.480390585
122.480351912
121.445165133
120.374068504
119.266326871
118.121237168
116.938134856
115.716401485
114.455473435
113.154851985
111.814115223
110.432932471
109.011081783
107.548469681
106.045157444
104.501391067
102.917636303
101.294621329
99.6333894627
97.9353632602
96.2024175441
94.4369651613
92.6420608064
90.8215219881
88.9800714921
87.1234989802
85.2588647498
83.3947615687
81.5417038099
79.7127745176
77.9240116068
76.194102114
146.252014242
146.02038796
145.719106743
145.408235481
145.103489702
144.811547673
144.532641909
144.263576142
144.000668518
143.740630367
143.480702552
143.218648762
142.952677433
142.681340324
142.403441465
142.117964501
141.824017285
141.520790924
141.207530213
140.883512693
140.548033921
140.20039714
139.839906905
139.46586398
139.077561796
138.674285846
138.255311778
137.819904725
137.367319046
136.896798271
136.407575273
135.898872598
135.369902909
134.819869469
134.247966653
133.653380587
133.035289829
132.392866208
131.725275701
131.031679469
130.311235011
129.563097746
128.786422491
127.980365088
127.144084234
126.276743486
125.377513501
124.445574535
123.480119334
122.4803566
121.445514867
120.374847074
119.267635775
118.123199353
116.940899131
115.720147699
114.460417832
113.161255115
111.822290865
110.443257747
109.024008737
107.564539743
106.065016544
104.525806398
102.947515608
101.331033701
99.6775837846
97.9887825774
96.266709074
94.5139811396
92.73384008
90.9302432128
89.107963731
87.2726971774
85.4311928286
83.5914420637
81.7630628295
79.958206501
78.1923885917
76.4854658944
146.586069226
146.222897944
145.823156663
145.454290179
145.116781472
144.808771273
144.523486144
144.252849171
143.990535217
143.731919109
143.473584349
143.213000706
142.948269505
142.677924527
142.400790684
142.115886432
141.82235645
141.519425476
141.206366827
140.882481395
140.547083433
140.199489324
139.839015022
139.464967862
139.076647677
138.673344238
138.254336295
137.818891269
137.366265065
136.895702258
136.406436515
135.89769103
135.368678989
134.818604079
134.24666112
133.652036865
133.033910758
132.391455633
131.723838616
131.030222508
130.309766818
129.561628548
128.784964651
127.978933619
127.142697338
126.275423208
125.376286525
124.444473194
123.479182909
122.479632672
121.445060784
120.374732184
119.267943881
118.12403171
116.942378026
115.722420874
114.463665326
113.165693911
111.828181632
110.450913305
109.03380375
107.57692163
106.08051771
104.545057587
102.971260156
101.360142039
99.7130681062
98.0318085554
96.318601085
94.5762179787
92.8080347315
91.0180973815
89.2111808639
87.3928351611
85.5694219485
83.7481542862
81.9373284174
80.1473165347
78.3913245679
76.68798604
147.135842348
146.481902191
145.92972463
145.492244334
145.120738483
144.798735827
144.509718924
144.239555393
143.97915286
143.722724493
143.466386972
143.207459964
142.944032552
142.674678697
142.398278135
142.113903093
141.82074515
141.518067797
141.20517505
140.88139137
140.546048615
140.198476472
139.837996001
139.463927028
139.075574129
138.67223032
138.253176898
137.81768311
137.365006351
136.894392164
136.40507495
135.89627855
135.36721673
134.817093725
134.245104851
133.650437015
133.032268794
132.389774279
131.722121474
131.028473643
130.307990953
129.559832563
128.783157376
127.977126037
127.140903006
126.273658782
125.374572362
124.442834035
123.477648626
122.478239474
121.443853064
120.373763793
119.267280152
118.123751764
116.942577514
115.723214865
114.46519112
113.168117101
111.831701395
110.455768473
109.040280022
107.585360078
106.091324181
104.558713265
102.988332589
101.381295776
99.7390743951
98.0635524214
96.3570833271
94.6225530326
92.863434719
91.0838380583
89.2885347792
87.4829526121
85.6731066461
83.8653809436
82.0664292927
80.2837977909
78.5245835682
76.7974297965
148.131079979
146.773264231
145.98251798
145.482676175
145.091837494
144.768083844
144.483674618
144.219171146
143.963771698
143.711329943
143.458020194
143.201330086
142.939523395
142.671324045
142.39573158
142.111910782
141.819123347
141.516684707
141.203937539
140.880233089
140.544911938
140.197324471
139.836818787
139.462711546
139.074311077
138.670913785
138.251802622
137.81624577
137.363502333
136.892819338
136.403431822
135.894563993
135.365429897
134.815234043
134.243172108
133.648431909
133.030194917
132.387634106
131.719917589
131.026209527
130.305671217
129.557462391
128.780743023
127.974675167
127.13842499
126.271165057
125.372076878
124.440353813
123.475204488
122.475856693
121.441562028
120.37160123
119.265290465
118.121988661
116.941106036
115.722114184
114.464557188
113.168064427
111.832367233
110.457317341
109.042908688
107.589302989
106.096859307
104.566168474
102.998092348
101.393808083
99.7548572487
98.0831975511
96.3812566161
94.6520086897
92.8990012722
91.1264026244
89.3390170324
87.5422615134
85.742032384
83.9441945371
82.1542757914
80.3770337272
78.6072714336
76.8153682336
149.924188526
146.996090989
145.882563533
145.355493616
144.988395139
144.6938235
144.432367932
144.184004147
143.939650451
143.694739958
143.446577802
143.193411277
142.934010237
142.667440985
142.392938645
142.109831863
141.817496796
141.51532875
141.202725099
140.879078337
140.543782905
140.196199159
139.835658191
139.461494739
139.073026665
138.669554802
138.250365383
137.814733481
137.361916632
136.891160439
136.401699994
135.892759669
135.363553583
134.813286289
134.241153461
133.646342618
133.028034047
132.385401745
131.717614466
131.023836721
130.303230173
129.554955218
128.778172571
127.972045098
127.135739934
126.268430723
125.369300254
124.437543448
123.472370791
122.473012376
121.438722606
120.368785606
119.262521544
118.119294183
116.938519417
115.719675323
114.46231369
113.166073953
111.830699046
110.456054335
109.042149978
107.58916685
106.097486606
104.567726548
103.000779256
101.397857045
99.7605416188
98.0908410008
96.391250909
94.6647780633
92.9150275323
91.1462364361
89.3632937718
87.5717185533
85.7775591777
83.9873195513
82.2074306812
80.4427068087
78.6727693335
76.772994454
56.7243962364
53.1725830811
50.7814833018
48.8248004822
47.1539218066
45.6985953778
44.4147227767
43.2724485781
42.2499385393
41.3302935113
40.4999811426
39.7479079955
39.0648278255
38.4429399676
37.875599586
37.3570999282
36.882502517
36.4475035407
36.0483270976
35.6816401678
35.3444847412
35.0342232955
34.7484950793
34.4851804752
34.2423715179
34.0183469633
33.8115510366
33.620574501
33.4441386489
33.2810807535
33.1303411399
32.9909526299
32.8620298981
32.7427612091
32.6324001861
32.5302595192
32.4357047768
32.3481501175
32.2670692676
32.1920575963
32.1228137785
32.0587821733
31.9995250127
31.9446890093
31.8939340781
31.8469489291
31.8034492593
31.763175277
31.7258762526
31.6913225205
31.6593009841
31.6296141009
31.6020776321
31.5765199824
31.5527845986
31.5307266809
31.5102111136
31.4911121068
31.4733125266
31.4567038614
31.4411877499
31.4266726759
31.4130734659
31.4003111093
31.3883127139
31.3770111449
31.3663452789
31.3562588947
31.3467011359
31.3376304922
31.3289984831
31.3207630077
31.3128877634
31.3053401131
31.2980848651
31.29109437
31.2843489661
31.2778350323
31.2715170036
31.2653706566
31.2593769126
31.2535192556
31.2477816979
31.2421493631
31.2366090939
31.23114998
31.2257615933
31.2204333748
31.2151550221
31.2099184128
31.2047169114
31.1995436889
31.1943911155
31.1892521403
31.1841215331
31.178993841
31.1738629739
31.168722787
31.1635690371
31.158397676
31.1532034907
31.1479805873
31.1427246652
31.137431352
31.1320954726
31.1267106325
31.121271649
31.1157726701
31.1102066322
31.1045655878
31.0988433784
31.0930345967
31.0871318412
31.0811264053
31.0750093983
31.0687708189
31.0623994299
31.055884037
31.0492132253
31.0423728147
31.0353470031
31.0281201794
31.0206764937
31.012997299
31.005060307
30.9968419142
30.9883166284
30.9794569143
30.9702336068
30.960613565
30.9505544958
30.9400073154
30.9289151925
30.9172073593
30.9047944616
30.8915654627
30.8773762878
30.8620440806
30.8453486611
30.8270041396
30.8066236376
30.7839633833
30.7581727778
30.7283516045
30.6928482016
30.6484424763
30.5879285276
30.4939642512
30.3302714949
30.0305262869
29.4925514369
28.5853820799
27.1758804864
25.1673244232
22.5275197728
19.3070382728
15.6222856936
11.4440928281
6.49774986188
1.53599392992
59.9060151644
55.853161651
53.1415926722
50.9900742947
49.1893734463
47.6410030801
46.2866293991
45.0888640023
44.0213727425
43.0643732159
42.2024048788
41.4230432021
40.7160937281
40.0730721085
39.4868251566
38.9512684647
38.4611717525
38.0120097302
37.5998277597
37.2211553773
36.8729184399
36.5523880007
36.2571250504
35.9849446335
35.7338837644
35.5021730554
35.2882147269
35.0905644326
34.9079091545
34.7390604427
34.5829304927
34.4385335972
34.304962858
34.1813952942
34.0670710793
33.9612997933
33.8634437402
33.7729212372
33.6891865965
33.6117065662
33.5399084147
33.4734853782
33.412024742
33.3551341839
33.3024776596
33.2537386936
33.2086207108
33.1668435566
33.128157462
33.0923264816
33.0591288418
33.0283611894
32.9998343647
32.9733790159
32.9488249971
32.9260196576
32.9048218144
32.8851009907
32.8667387024
32.8496231993
32.8336464176
32.8187132673
32.8047350942
32.7916297998
32.7793219751
32.7677420601
32.7568282786
32.7465177007
32.7367558793
32.7274841204
32.7186639792
32.7102537527
32.7022160041
32.6945124073
32.6871141447
32.6799893314
32.6731134211
32.6664519704
32.659988865
32.6537016039
32.6475761827
32.6415920375
32.6357364938
32.6299904675
32.6243447292
32.6187838603
32.6133012706
32.6078815705
32.6025183871
32.5971998779
32.591922014
32.5866761056
32.5814540775
32.5762502896
32.571057512
32.5658723631
32.5606859454
32.5554938686
32.5502907229
32.5450740241
32.5398356697
32.5345734433
32.5292779082
32.5239515563
32.5185811607
32.5131676268
32.5076998409
32.502176432
32.496587252
32.4909256971
32.4851862162
32.4793631917
32.4734485822
32.4674353606
32.4613132782
32.4550741926
32.448705987
32.4421991212
32.4355432305
32.4287228872
32.4217272801
32.414537144
32.407140927
32.3995204704
32.3916553473
32.3835269315
32.3751075837
32.3663773603
32.3573096187
32.3478720839
32.3380305078
32.3277382058
32.3169419907
32.3055808627
32.2935730042
32.2808072662
32.2671537009
32.252432312
32.2364291687
32.218853858
32.1993462001
32.1774511185
32.1523524518
32.122861053
32.086778906
32.0398809913
31.9729944503
31.8654773839
31.6759964393
31.3319398618
30.725277944
29.7224559611
28.1937074688
26.0521572467
23.2775204943
19.9250706393
16.1091020305
11.8146961417
6.7808647469
1.66737809733
62.1137346059
58.1801887674
55.3135096561
53.0305015975
51.1298556338
49.5050068486
48.0907949071
46.8450491515
45.738189533
44.7482107781
43.8581016066
43.0543360157
42.3259243963
41.6638003105
41.0603784851
40.5092497722
40.0049363133
39.5427215994
39.1185012188
38.7286853513
38.3701040077
38.0399493277
37.7357175508
37.455168825
37.1962934049
36.957281899
36.7365012184
36.5324761879
36.3438660252
36.1694577997
36.0081408071
35.8589083195
35.7208331397
35.5930721248
35.4748447356
35.3654384153
35.2641915329
35.1704966244
35.0837924221
35.0035703798
34.9293338982
34.8605418387
34.796855518
34.7379165338
34.6833833011
34.6329247899
34.5862314718
34.5430119901
34.5029992051
34.4659499459
34.4316353215
34.3998451252
34.3703791758
34.3430492756
34.3176906103
34.2941475797
34.2722746621
34.2519356928
34.233002962
34.2153598967
34.1989023366
34.1835310271
34.1691517392
34.15567962
34.1430369864
34.1311473815
34.1199458624
34.1093715092
34.0993712734
34.0898917026
34.0808879444
34.0723133981
34.064129065
34.0562950616
34.0487799535
34.0415502948
34.0345818684
34.0278443348
34.0213164595
34.0149725397
34.0087965722
34.0027669004
33.9968702368
33.99108741
33.9854085308
33.97981743
33.9743064836
33.9688607041
33.9634736034
33.9581334088
33.9528344299
33.9475680674
33.9423263638
33.9371042355
33.9318939978
33.9266914441
33.9214880249
33.916279607
33.9110604155
33.9058278429
33.9005736751
33.8952966973
33.8899871748
33.8846471349
33.8792638653
33.873838025
33.8683592428
33.8628249439
33.8572265292
33.8515580554
33.8458135788
33.8399874782
33.8340717101
33.8280599166
33.8219423204
33.8157111223
33.8093549607
33.8028643669
33.7962313164
33.7894408212
33.7824827709
33.7753389868
33.7679981474
33.7604451264
33.7526610708
33.7446308386
33.7363304739
33.7277406136
33.7188382689
33.7095962905
33.6999844636
33.6899611343
33.6794797529
33.6684848997
33.6569020683
33.6446273689
33.6315418351
33.6174744545
33.6022158539
33.5854838479
33.5668605338
33.5458452934
33.5215241628
33.4924255423
33.455762685
33.4062503175
33.3326831973
33.2110854482
32.9952206213
32.6066067548
31.9321151038
30.8364970007
29.193831324
26.9264782946
24.0243810785
20.5457091091
16.6013316354
12.1898633862
7.06492907724
1.7970112736
63.918134285
60.1935026607
57.2900749485
54.9359005322
52.9671946343
51.2845193329
49.8225793136
48.5373386078
47.3973953159
46.3792855726
45.4648886463
44.6398496208
43.8925620232
43.2134995379