/*--------------------------------*- C++ -*----------------------------------*\
| =========                 |                                                 |
| \\      /  F ield         | OpenFOAM: The Open Source CFD Toolbox           |
|  \\    /   O peration     | Version:  2106                                  |
|   \\  /    A nd           | Website:  www.openfoam.com                      |
|    \\/     M anipulation  |                                                 |
\*---------------------------------------------------------------------------*/
FoamFile
{
    version     2.0;
    format      ascii;
    arch        "LSB;label=32;scalar=64";
    class       volScalarField;
    location    "0.395";
    object      p;
}
// * * * * * * * * * * * * * * * * * * * * * * * * * * * * * * * * * * * * * //

dimensions      [0 2 -2 0 0 0 0];

internalField   nonuniform List<scalar> 
11200
(
150.104994686
147.176392158
146.062537959
145.535201395
145.167864621
144.873077676
144.611424025
144.362874573
144.118344184
143.873263251
143.62493465
143.371603686
143.112038328
142.845302956
142.57063068
142.287348061
141.994829268
141.692468314
141.379666384
141.055835347
140.720351471
140.37256575
140.011819841
139.637445856
139.248758114
138.845055178
138.425620688
137.989724023
137.536621084
137.065554998
136.575756724
136.06644554
135.536828956
134.986103329
134.413454245
133.81805793
133.199080813
132.555679691
131.887002364
131.192187612
130.470365719
129.720658786
128.942180692
128.13403742
127.295326873
126.425138799
125.522554571
124.586646153
123.616475268
122.611091551
121.569530536
120.490810986
119.37393101
118.217863131
117.021548154
115.78388723
114.503731864
113.179871514
111.81101783
110.395784919
108.932664023
107.419991954
105.855911201
104.238321109
102.564811535
100.832577112
99.038307397
97.1780427915
95.2469795321
93.2392028936
91.147323937
88.9619830981
86.6709814288
84.2581322277
81.7013491366
78.9689712659
76.0133976392
72.7620497812
69.0611947252
64.2978090354
148.311953245
146.953778156
146.162803244
145.662783554
145.271788239
144.947897109
144.663366066
144.398752724
144.143252686
143.890717594
143.637320152
143.380546761
143.118660354
142.850384425
142.574718507
142.290827757
141.997974766
141.695476702
141.382675125
141.058908199
140.723525746
140.375852306
140.015244163
139.641033112
139.252523049
138.849006836
138.429765303
137.994065973
137.541163421
137.070299833
136.580705136
136.071597118
135.542181349
134.991657844
134.41921415
133.824026581
133.205261218
132.562074869
131.893615258
131.19902136
130.477423528
129.727944101
128.949697156
128.141789234
127.303318793
126.433376321
125.53104417
124.595395451
123.62549337
122.620389526
121.579121918
120.500712238
119.384162239
118.228449013
117.03251906
115.795280636
114.515594028
113.192259553
111.824002276
110.409453152
108.947125095
107.435382531
105.87240152
104.25611885
102.584166671
100.853804631
99.0618172936
97.2043674066
95.2768159454
93.2734783473
91.1872858595
89.009282208
86.7279196901
84.3280620946
81.7893138398
79.0831661091
76.1688202226
72.9884420199
69.4392421757
65.3263702218
147.316762795
146.662561285
146.110202124
145.672579078
145.300948325
144.978838157
144.689728552
144.419483745
144.159008809
143.90251492
143.646117105
143.387133652
143.1236525
142.854246645
142.577794984
142.29336888
142.000158688
141.697425803
141.384471944
141.060620272
140.72520875
140.377597818
140.017043465
139.642891961
139.254451109
138.85101122
138.431850813
137.996236338
137.543422099
137.07265049
136.583152261
136.074147228
135.544844781
134.994437686
134.422108278
133.827035229
133.208385904
132.565317575
131.89697868
131.202509122
130.481040145
129.731694969
128.953588759
128.145829306
127.307516775
126.437743526
125.535594276
124.600144991
123.630462316
122.625602124
121.58460775
120.50650736
119.390310619
118.235004308
117.039546681
115.802860386
114.523823448
113.201258035
111.833916277
110.420462145
108.959448554
107.449288585
105.88821798
104.274268079
102.605201257
100.878423818
99.0908940363
97.2390137187
95.3184691019
93.3240218921
91.2492226726
89.0860087616
86.8242852852
84.4511362845
81.9498407902
79.2985387281
76.4692569762
73.4303815203
70.1459371021
66.5929061757
146.767001041
146.403618571
146.003717145
145.634721432
145.297097712
144.988986643
144.703613234
144.432897925
144.170513413
143.911832768
143.653437973
143.392797477
143.128011439
142.857612566
142.580424765
142.295465507
142.001878463
141.698887435
141.385765303
141.061812171
140.72633715
140.378650102
140.018109812
139.643993068
139.255589083
138.85219003
138.433074142
137.997506688
137.544740889
137.074018048
136.584567788
136.075608098
135.546346567
134.995981627
134.423703594
133.828687115
133.210100616
132.567102009
131.898838828
131.204451346
130.483071713
129.733824077
128.95582516
128.148184505
127.310004685
126.440381109
125.538401889
124.603147464
123.633689803
122.629091253
121.588402965
120.510662696
119.39489182
118.240091483
117.045237578
115.809274519
114.531107353
113.209591617
111.843520362
110.431607994
108.972473192
107.4646174
105.906379897
104.295901211
102.631079738
100.909517187
99.1284382836
97.284591191
95.3741232888
93.3924249283
91.3339393222
89.1919371592
86.9581868578
84.6226465373
82.1732274212
79.5958315947
76.875714253
74.0031693734
70.9817974243
67.8487809125
146.432952322
146.201155706
145.899739985
145.588757771
145.283911352
144.991879449
144.712893925
144.443756608
144.180783952
143.920685862
143.66070194
143.398594776
143.132571851
142.861184081
142.58323477
142.29770695
142.003707988
141.700428674
141.387113707
141.063040514
140.727504254
140.37980863
140.019257279
139.645139581
139.256758343
138.853397109
138.434328874
137.998816519
137.546111907
137.075455833
136.586077936
136.077196977
135.548020963
134.997746689
134.425560652
133.830639449
133.212148779
132.569247025
131.90108479
131.206803017
130.485536192
129.736410718
128.958545896
128.151054191
127.313041257
126.443606506
125.541842662
124.606835729
123.637664511
122.633399595
121.593102533
120.515823814
119.400600194
118.246451582
117.052376647
115.81734695
114.540299977
113.220132263
111.855685916
110.445741907
108.988997112
107.484039763
105.929332252
104.323179987
102.663689212
100.948718166
99.1758194979
97.3421715231
95.4444950365
93.4789561274
91.4410582899
89.3255370846
87.1262841374
84.8363807623
82.4484063217
79.9553517908
77.3530210322
74.6458564373
71.8552189869
69.0318072091
146.22955891
146.053655751
145.812457847
145.545127224
145.267933732
144.991287351
144.719588097
144.453075499
144.19029806
143.929275735
143.667973644
143.404524756
143.137303622
142.864919427
142.586179291
142.300045525
142.005596091
141.701991598
141.388449323
141.064223506
140.728590787
140.380839308
140.020259656
139.64614209
139.257775992
138.85444052
138.435406047
137.999933372
137.547272872
137.076664092
136.587335716
136.07850564
135.549381272
134.99915955
134.427027564
133.83216282
133.213734143
132.570901647
131.902817165
131.208624771
130.487459932
129.73844981
128.960715898
128.153373169
127.315530946
126.446293047
125.544757868
124.610018234
123.641161318
122.637268276
121.597412799
120.520659901
119.406064277
118.252667767
117.059496145
115.825555733
114.549827846
113.231260095
111.868762055
110.461184022
109.007309885
107.505847292
105.955412395
104.354489012
102.70141004
100.994325843
99.231165741
97.4095964177
95.5269782068
93.5803255794
91.5662825722
89.481137685
87.3209246709
85.0817023314
82.7601858714
80.3550236415
77.8692833535
75.3151191808
72.719479354
70.1294624095
146.106441116
145.950832446
145.744527731
145.507961214
145.25248015
144.989193438
144.724571659
144.461053187
144.198908827
143.937310763
143.674925001
143.410275074
143.141931243
142.868584997
142.589064196
142.302321283
142.00741134
141.703468542
141.389684878
141.065292467
140.729549526
140.38172965
140.021114009
139.646985048
139.258623857
138.855304658
138.436295009
138.000853515
137.548229026
137.077660225
136.588375463
136.079592566
135.550519153
135.000352958
134.428282166
133.833485264
133.215131431
132.572381663
131.904388372
131.210295012
130.489236905
129.740345369
128.962746198
128.155558623
127.31789657
126.448869348
125.547581761
124.613134512
123.644624264
122.641143599
121.601780181
120.525616472
119.411728362
118.259183439
117.067038676
115.834336758
114.560102666
113.243341555
111.883027158
110.478100179
109.02745889
107.529943271
105.984323834
104.389287917
102.74342385
101.045202624
99.2929601037
97.4848827325
95.6190011145
93.6932010704
91.7052684969
89.6529974772
87.5344086581
85.3481694321
83.0943486103
80.7757037283
78.3997836884
75.9821867595
73.5497882372
71.1419451984
146.032360408
145.882349336
145.69559109
145.479481785
145.23977046
144.986942692
144.728297796
144.467550545
144.206173519
143.944240343
143.681010199
143.4153597
143.14604838
142.871855047
142.591636235
142.304342125
142.009011234
141.704756239
141.390747596
141.066198152
140.730349971
140.382463739
140.021810515
139.647664739
139.259302615
138.855993435
138.437002028
138.001584944
137.548989638
137.078454082
136.58920617
136.08046371
135.551434448
135.001316371
134.42929774
133.83455757
133.216265898
132.573583979
131.905665091
131.211655724
130.490697675
129.741924048
128.964461565
128.157432909
127.319956815
126.451148377
125.550119545
124.615979698
123.647835947
122.64479353
121.605956027
120.530424637
119.417297942
118.26567126
117.07463557
115.843276016
114.570670249
113.255884065
111.897970864
110.495960617
109.04886226
107.555656408
106.015288385
104.426661008
102.788630099
101.100000446
99.3595267134
97.5659232186
95.7178888067
93.8141586822
91.8536006346
89.8353849573
87.7592658785
85.6260556541
83.4383676822
81.2017353107
78.926194774
76.6283507288
74.3328825539
72.0717981945
145.99008302
145.840634495
145.664216589
145.46047495
145.230937667
144.985223483
144.730856448
144.472209715
144.211493254
143.949388067
143.685578296
143.419206123
143.149180078
142.874351581
142.593603944
142.30588901
142.010234764
141.705738677
141.391555407
141.066883396
140.730952512
140.383013557
140.022329886
139.648170901
139.259805459
138.856502758
138.437524588
138.002125775
137.549552839
137.079043119
136.589824323
136.08111424
135.552120801
135.00204234
134.43006767
133.835376533
133.217140113
132.574521363
131.906675949
131.212752473
130.491891504
129.743229884
128.965899186
128.159026657
127.321736139
126.453148925
125.552384565
124.618561696
123.650798765
122.648214625
121.609929051
120.535063265
119.422740365
118.272085487
117.082225613
115.852289465
114.581407275
113.26871057
111.91333033
110.514397299
109.071040144
107.582384973
106.04755593
104.465676067
102.835872316
101.157284521
99.4290822094
97.6504943704
95.8208582474
93.939701104
92.0068682435
90.0227266014
87.9884712835
85.9065936812
83.7815401155
81.6206058654
79.4350410187
77.2412569953
75.0612976079
72.92134166
145.970805614
145.820926994
145.648961948
145.451023389
145.22645784
144.984333377
144.732191586
144.474674668
144.214338154
143.95216619
143.688063541
143.421314525
143.150909626
142.875741445
142.594709386
142.306767292
142.010938143
141.706311561
141.392033848
141.067295752
140.731320569
140.383353766
140.022654445
139.648488754
139.26012418
138.856827256
138.437858827
138.002473002
137.549915959
137.079424831
136.590227406
136.081541633
135.552575765
135.002528717
134.430589983
133.835940221
133.217751748
132.575188776
131.907408147
131.213559985
130.492788931
129.744234461
128.967031399
128.160311325
127.323203546
126.454835896
125.55433582
124.620831517
123.653452991
122.651333175
121.613608968
120.53942233
119.427921534
118.278262239
117.089608662
115.861135346
114.592028207
113.281484765
111.928717566
110.532957268
109.093452154
107.609475199
106.080330113
104.505358974
102.883955882
101.215586713
99.4998188533
97.7363658796
95.9251532883
94.0664188529
92.1608548297
90.2098304936
88.2156858113
86.182174288
84.1150037063
82.0225189223
79.9164432483
77.8125307116
75.7304711125
73.6921883134
145.97080733
145.820942254
145.648988322
145.451059226
145.226502406
144.984385838
144.732250988
144.474740132
144.21440892
143.95224161
143.688143089
143.421397792
143.150996315
142.875831352
142.594802385
142.30686335
142.011037259
141.706413778
141.392139257
141.067404497
140.731432866
140.383469903
140.022774814
139.64861385
139.260254734
138.856964022
138.438002687
138.00262518
137.550077902
137.079598274
136.590414312
136.081744571
135.55279782
135.002773492
134.430861908
133.836244553
133.218094815
132.575578124
131.907853391
131.214072896
130.493383347
129.744927256
128.967843306
128.161267571
127.324334773
126.456179399
125.555936979
124.622745379
123.655746327
122.654086985
121.616921454
120.543412722
119.432734441
118.284073157
117.096630482
115.869626538
114.602301502
113.293919794
111.94377525
110.55119861
109.115555828
107.636264749
106.112804141
104.544728132
102.931686737
101.2734529
99.5699596406
97.8213564859
96.02808909
94.1910077099
92.311540837
90.3919904105
88.4354702175
86.4466018829
84.4319010297
82.4002691897
80.3634923346
78.3365878718
76.3374582072
74.3851962881
145.990088229
145.840680656
145.664296314
145.46058319
145.231072197
144.985381612
144.731035273
144.47240662
144.211705972
143.949614671
143.685817214
143.419456145
143.149440323
142.874621439
142.593883048
142.306177214
142.010532085
141.706045263
141.391871545
141.067209537
140.731289305
140.383361836
140.022690785
139.648545935
139.26019661
138.856912312
138.437955309
138.002581143
137.550037161
137.079561531
136.590382969
136.081720596
135.552783937
135.002773067
134.430879079
133.836284436
133.218163635
132.575683576
131.908004633
131.21428123
130.493662512
129.745293961
128.96831799
128.161875137
127.325105518
126.457150147
125.557152449
124.624259895
123.657625805
122.656411289
121.619787475
120.546937788
119.43706113
118.289374248
117.103115575
115.877549619
114.611970507
113.305708407
111.958135248
110.568674104
109.136811461
107.662100756
106.144185674
104.582818081
102.97788339
101.329437529
99.637766307
97.9034552074
96.1273931483
94.3109554362
92.4561192315
90.5655676381
88.6432773829
86.6945071261
84.7262483098
82.7476539953
80.7703973764
78.8088827366
76.8798267833
75.0006694956
146.032369352
145.882427567
145.695725838
145.479664273
145.239996788
144.987208181
144.728597535
144.467880144
144.206529187
143.944618894
143.681409053
143.415776871
143.14648241
142.872304932
142.592101374
142.304822277
142.009506447
141.70526679
141.39127399
141.06674117
140.730910686
140.383043541
140.022411163
139.648288836
139.259953097
138.856674146
138.437717602
138.002341133
137.549793453
137.079313943
136.590132193
136.081468157
135.552532154
135.002524966
134.43063854
133.836056289
133.217953695
132.575499088
131.907854381
131.214175981
130.49361554
129.745321294
128.968439204
128.162114218
127.325491625
126.457718711
125.557946496
124.625331679
123.659038776
122.65824233
121.622129755
120.549904286
119.440788714
118.294028845
117.108898414
115.884703814
114.620790998
113.316551829
111.971432764
110.584946361
109.156683767
107.686332006
106.173690806
104.618699919
103.021473542
101.382326203
99.7018126891
97.9807915271
96.2205832491
94.4230026242
92.5905046412
90.7263507851
88.8348496447
86.9216030785
84.9938296917
83.0607013916
81.1336589165
79.2266482199
77.3558012668
75.5380318652
146.106454271
145.950944969
145.744720621
145.50822137
145.252801646
144.989569412
144.72499508
144.461517844
144.199409411
143.93784286
143.675485068
143.410860378
143.142539775
142.86921538
142.589715622
142.302993429
142.008104275
141.704182652
141.390420854
141.066051327
140.730332692
140.382539113
140.021952333
139.64785559
139.25953068
138.856252983
138.437291222
138.00190547
137.549346247
137.078854323
136.589660357
136.080985164
135.552039902
135.002026077
134.430136476
133.835555439
133.217459413
132.575018016
131.907394692
131.213747688
130.493230995
129.744995554
128.968190634
128.161965217
127.325469509
126.457856651
125.558284775
124.625919209
123.659934815
122.659518888
121.623874036
120.552221984
119.443807819
118.297904556
117.113818726
115.89089599
114.628529957
113.326170005
111.98333267
110.599612271
109.174699708
107.708399153
106.20064947
104.651550574
103.061394416
101.430719811
99.7603616727
98.0515034933
96.3057567464
94.5252633204
92.712821299
90.8720304697
89.0074723591
87.1249209967
85.2316055639
83.3365097571
81.4507129305
79.5877841627
77.7637337075
75.9959703998
146.229577066
146.053806369
145.812714144
145.545470844
145.268356227
144.991779379
144.720140352
144.453679939
144.19094791
143.929965406
143.668698676
143.405281722
143.138090011
142.865733541
142.58702014
142.3009127
142.006489625
141.702911865
141.38939702
141.065199589
140.729596421
140.381876297
140.021332397
139.647256379
139.258936444
138.855653041
138.436678366
138.001274998
137.548695431
137.078181838
136.588966012
136.080269671
135.551304738
135.001273519
134.429369504
133.83477797
133.21667626
132.574235069
131.906619175
131.21298845
130.492499063
129.744304511
128.967557095
128.161409521
127.325016474
126.457536492
125.558134149
124.625982539
123.660265923
122.660183045
121.624950399
120.553806428
119.446016276
118.300877359
117.11772566
115.895942498
114.634964176
113.334291356
111.993502266
110.612266125
109.190360392
107.727691948
106.224322246
104.68049768
103.096685062
101.473613026
99.8123247114
98.1142415969
96.3812385111
94.6157285723
92.8207667894
91.0001703098
89.1586627393
87.3020348472
85.4373477594
83.5731950901
81.7200912118
79.8911166986
78.10230241
76.372322148
146.432976343
146.201349441
145.900066287
145.589191902
145.284441653
144.992493675
144.713580367
144.444505404
144.181586946
143.921536398
143.661594753
143.39952586
143.133538314
142.862184037
142.584267216
142.298771608
142.004805103
141.70155884
141.388277703
141.064239275
140.728739165
140.381080662
140.020568373
139.646503068
139.258178182
138.854879228
138.435881863
138.000451152
137.547841408
137.077296158
136.58804819
136.079320013
135.550324255
135.000264001
134.428333501
133.833718881
133.215598474
132.573144007
131.905521445
131.211891949
130.491413284
129.743241131
128.966530304
128.16043666
127.324118829
126.456740176
125.557471072
124.625491351
123.659993538
122.660186585
121.625299076
120.554584127
119.447324617
118.302839281
117.12048991
115.899689058
114.639909352
113.340695624
112.001678869
110.622591759
109.203287299
107.743761836
106.244181592
104.704914217
103.126566201
101.510027141
99.8565204823
98.1676626239
96.4455323549
94.6927475351
92.9125498605
91.1088970754
89.2865633017
87.4512457007
85.609695807
83.7699079728
81.9415039267
80.1366384407
78.370827515
76.663926981
146.767031193
146.403859298
146.00411611
145.635246524
145.297733365
144.989717223
144.704424545
144.433778356
144.171453532
143.912824982
143.654476348
143.393877566
143.129130125
142.858767966
142.581616159
142.296693278
142.003144025
141.700193157
141.387114087
141.063207743
140.727788473
140.380172654
140.019676252
139.64560662
139.257263649
138.853937117
138.43490579
137.999437072
137.546786767
137.076199464
136.586908807
136.078137915
135.549099967
134.998998457
134.427027991
133.832375252
133.214219511
132.571733476
131.904084321
131.210434804
130.489944749
129.741771405
128.965071814
128.159004447
127.322731073
126.455418848
125.556242842
124.624388657
123.659055464
122.65946082
121.624843144
120.554467451
119.447631171
118.30367049
117.121967943
115.901961565
114.643155975
113.345133344
112.007568327
110.630245806
109.213080815
107.756142354
106.259681477
104.724164298
103.150309969
101.539135209
99.8920048775
98.210688914
96.497424981
94.754985347
92.986745753
91.1967528782
89.3897829595
87.5713876084
85.7479313304
83.9266315507
82.1157912482
80.3257923303
78.5698509247
76.8666212196
147.316804195
146.662863408
146.110683952
145.673200555
145.301690248
144.979681632
144.690657152
144.420484372
144.160070934
143.903630096
143.647278683
143.388336526
143.124892871
142.855521841
142.579103332
142.294709668
142.001532456
141.698835231
141.3859221
141.062117561
140.726753492
140.37915963
140.018657032
139.644565538
139.256189803
138.852822881
138.433746013
137.99822846
137.545527566
137.074888875
136.585546824
136.076725163
135.547637567
134.997488056
134.425471747
133.830775439
133.21257756
132.570052031
131.902366959
131.208685832
130.488168785
129.739975263
128.963264316
128.15719659
127.320936375
126.453653935
125.554528044
124.62274882
123.657521122
122.65806773
121.623635512
120.553499166
119.446967747
118.303391034
117.12216822
115.902756728
114.644683356
113.347558422
112.011090111
110.635102929
109.219558893
107.764582385
106.270489339
104.737821158
103.167383272
101.560289465
99.9180114196
98.2424329257
96.5359071792
94.801320009
93.0421449302
91.2624919294
89.4671340326
87.6615002714
85.8516080572
84.0438456408
82.2448741343
80.4622534872
78.7030984403
76.9761058714
148.312041708
146.954225274
146.163477118
145.66363219
145.272789026
144.949029386
144.664612555
144.400099805
144.144689424
143.892235185
143.638911553
143.382206316
143.120383391
142.852166865
142.576556459
142.29271707
141.999910409
141.697451929
141.384684359
141.060959116
140.725616641
140.378007468
140.01747965
139.643349885
139.254926534
138.85150608
138.432371432
137.996790748
137.544023164
137.073315719
136.583903408
136.075010356
135.545850511
134.99562818
134.423538837
133.828770138
133.210503454
132.567911634
131.900162861
131.20642144
130.485848783
129.737604804
128.960849645
128.154745399
127.318457963
126.451159698
125.552031948
124.62026779
123.655075794
122.655683709
121.621343271
120.55133549
119.444977124
118.301627203
117.120696016
115.901654844
114.644047672
113.347503587
112.011753541
110.636649247
109.222184917
107.768522677
106.276022078
104.745274336
103.177141399
101.572800451
99.9337931291
98.2620772994
96.5600794795
94.8307740186
93.0777089014
91.3050523188
89.5176092183
87.7207971035
85.9205131496
84.1226242394
82.3326600398
80.5553834816
78.78559742
76.9937973883
150.105150167
147.177051777
146.063522401
145.536449333
145.169346331
144.874768663
144.613305451
144.364932355
144.120567716
143.875644755
143.627468747
143.37428712
143.114869871
142.848283483
142.573763241
142.290637876
141.998283593
141.696095748
141.383471696
141.059804001
140.724487393
140.37688201
140.01631893
139.642132958
139.253641973
138.850146896
138.430934014
137.995278238
137.542437259
137.071656674
136.58217147
136.073205899
135.543974029
134.993680273
134.421520065
133.826680643
133.208342285
132.565678944
131.897859396
131.204048299
130.48340745
129.73509738
128.958278959
128.152115058
127.315772564
126.448424893
125.549254697
124.61745674
123.652241318
122.652838599
121.618503164
120.548519386
119.442207874
118.298932613
117.118109486
115.899216299
114.64180452
113.345513339
112.010085534
110.635386477
109.221426477
107.768386748
106.276649441
104.746832251
103.179827864
101.576848592
99.9394758782
98.2697170565
96.5700691558
94.8435376317
93.093727727
91.3248764272
89.541872898
87.7502359642
85.956011724
84.1656971596
82.3857128632
80.6208415918
78.8506226804
76.9505999106
56.9036312534
53.3514325695
50.9599401638
49.0024737829
47.3303900862
45.8735168858
44.5878690698
43.4437394991
42.4194543289
41.4982659971
40.6667669934
39.913950763
39.2306142479
38.6089572241
38.0422986107
37.5248680718
37.0516476089
36.6182484816
36.2208132804
35.8559369731
35.5206025707
35.2121274139
34.9281188591
34.6664367714
34.4251618533
34.2025685493
33.9971017027
33.8073562367
33.63205989
33.470057665
33.3202987714
33.1818251974
33.0537615617
32.9353068118
32.8257259704
32.7243445321
32.6305422677
32.5437475861
32.4634323238
32.3891064726
32.320313756
32.2566255554
32.1976335655
32.1429484193
32.0922810734
32.0456522952
32.002663963
31.9629394073
31.9261481647
31.8920507654
31.8604511372
31.8311621796
31.804007378
31.7788249082
31.7554837998
31.733833884
31.7137330001
31.6950533341
31.6776791875
31.6615113756
31.6464380293
31.6323633345
31.619204393
31.6068805606
31.5953193311
31.5844519083
31.5742174266
31.5645611371
31.5554297407
31.5467771359
31.5385594358
31.5307344428
31.5232684103
31.5161254632
31.509273701
31.502686715
31.4963354488
31.4901963052
31.4842490364
31.4784745366
31.4728542081
31.4673705247
31.4620094596
31.4567583085
31.4516081892
31.4465555694
31.4415831509
31.4366814437
31.4318372042
31.4270475343
31.4222999264
31.4175962065
31.4129508204
31.4083331108
31.4037329894
31.3991455002
31.3945657873
31.3899903745
31.3854157798
31.3808382367
31.3762533147
31.3716565781
31.3670437067
31.3624112519
31.3577563353
31.3530765849
31.348370221
31.343635605
31.3388706287
31.334072575
31.3292385078
31.3243652214
31.3194492105
31.3144873675
31.3094770683
31.3044167937
31.2993057067
31.2941435045
31.2889299329
31.2836644334
31.2783459682
31.2729723738
31.2675369399
31.262018538
31.2563611487
31.2505259992
31.2453244988
31.2402917492
31.2350248689
31.2297428396
31.2245337218
31.2194496752
31.2145355985
31.2098480528
31.205443854
31.2013796831
31.1977053076
31.1944596828
31.1916479253
31.1892436484
31.1874462646
31.1858011569
31.1843445972
31.1824217711
31.17837966
31.1680180313
31.1413104152
31.0766397534
30.9328153703
30.6393518244
30.0910795904
29.1552408779
27.699225396
25.6302676638
22.9222685179
19.6312503805
15.8757211548
11.6239306241
6.60067469893
1.56958128752
60.0850158399
56.0321238526
53.3200764723
51.1676647888
49.3656693004
47.8156791709
46.4594801495
45.2598367338
44.1905730693
43.2320547212
42.3689413995
41.5888879226
40.8817387205
40.2390023188
39.6534871347
39.1190397006
38.6303505666
38.1828065464
37.7723745667
37.3955106055
37.0490856775
36.7303257977
36.4367628829
36.1661932005
35.9166432199
35.686340679
35.4736889388
35.2772466068
35.0957084668
34.9278897289
34.7727125996
34.6291940434
34.4964356611
34.3736155225
34.2599791311
34.1548344081
34.0575448084
33.967525638
33.8842374598
33.8071826594
33.7359030617
33.669978186
33.6090234093
33.5526872825
33.5006224207
33.4523598691
33.4076772388
33.3663204452
33.3280642181
33.2926773529
33.2599374373
33.2296364647
33.2015815213
33.1755911073
33.1514945546
33.1291398906
33.1083882623
33.0891105305
33.07118239
33.0544839457
33.0389215479
33.0244025951
33.0108419541
32.9981531139
32.9862624104
32.9751010409
32.9646015064
32.954706156
32.945360974
32.9365092146
32.928123288
32.9201337762
32.9125343079
32.9052669263
32.8983081391
32.8916228727
32.8851863932
32.8789727314
32.8729594859
32.8671247934
32.8614547976
32.8559281938
32.8505319998
32.8452524108
32.8400700008
32.834970351
32.8299459104
32.8249884515
32.8200906289
32.815242979
32.8104385234
32.805668186
32.8009211556
32.7961944195
32.7914856645
32.7867907485
32.782106251
32.7774280442
32.7727522431
32.7680758156
32.7633943025
32.7587030454
32.753997862
32.7492752906
32.7445323729
32.73976696
32.7349772582
32.7301615389
32.7253172791
32.7204422064
32.7155327023
32.7105858624
32.7055981937
32.7005663601
32.6954881413
32.6903619609
32.6851873373
32.6799646268
32.6746939985
32.6693766224
32.6640137767
32.6586079725
32.653163775
32.6476909392
32.6422162639
32.6367601402
32.6313664832
32.6256804699
32.6202635393
32.6149830965
32.6097825783
32.6047601822
32.599961129
32.5954486004
32.5912907342
32.5875583525
32.5843182295
32.5816250252
32.5794864072
32.5779725419
32.5770439993
32.5765570848
32.5762358799
32.5752512317
32.5714311097
32.5595920144
32.5277232247
32.4509494105
32.2831131821
31.9474077351
31.3325540008
30.3028065016
28.728662324
26.5271745746
23.6841269366
20.2600463237
16.3714349004
12.001789182
6.88967800191
1.70308876265
62.2924712919
58.3589498769
55.4917318535
53.207743703
51.305726892
49.6792025024
48.2631371075
47.0155144128
45.9069103482
44.9154625848
44.0242734092
43.2198890667
42.4913522675
41.8295837104
41.2269554404
40.6769864752
40.1741183559
39.7135464826
39.2910887792
38.9030835707
38.5463079012
38.2179113047
37.9153625468
37.6364050995
37.379020104
37.1413960104
36.9219016896
36.7190647225
36.5315519771
36.3581530038
36.1977663699
36.0493876869
35.9120981163
35.7850570625
35.6674925997
35.558696138
35.4580156567
35.3648513527
35.2786496498
35.1988985369
35.1251244987
35.0568890356
34.9937842247
34.9354318889
34.8814887216
34.8315857822
34.7852802255
34.742444409
34.7028448226
34.6662219297
34.6323406016
34.6009867994
34.5719622015
34.5450829683
34.5201802672
34.4970956043
34.4756832767
34.4558073927
34.4373408052
34.4201561134
34.404150359
34.3892278198
34.3753000713
34.3622772711
34.3500804294
34.338637809
34.3278792025
34.3177485338
34.3081893377
34.2991422766
34.2905851124
34.2824337929
34.2746922619
34.267292651
34.2602057594
34.2534069914
34.2468668572
34.2405589196
34.2344573832
34.228540159
34.2227935271
34.2171932351
34.2117187027
34.2063609471
34.201110213
34.195957468
34.190888917
34.1858926553
34.1809597057
34.1760817223
34.1712492458
34.1664559931
34.1616952631
34.156959369
34.1522413256
34.1475360216
34.1428404234
34.1381498688
34.1334596462
34.1287666256
34.1240664844
34.1193546095
34.1146266277
34.1098789562
34.1051088464
34.1003141266
34.0954926786
34.0906424953
34.0857610571
34.0808462021
34.0758944749
34.0709031008
34.0658687101
34.0607885414
34.055660697
34.0504838766
34.0452575921
34.0399824241
34.0346588057
34.0292883878
34.0238735574
34.0184180846
34.01292826
34.007415091
34.0018969691
33.9963709011
33.9908621342
33.9854068507
33.9799968022
33.9747196198
33.9694043867
33.9643848759
33.9596650514
33.9552995726
33.9513543016
33.9479170456
33.9450743727
33.9428944688
33.9413771337
33.9405665074
33.9404858548
33.9409348267
33.9415279397
33.9411843695
33.9371560242
33.9232166066
33.8853460301
33.795402572
33.6024667017
33.2238944159
32.5431357118
31.4224107497
29.7357749233
27.4093886257
24.4391565251
20.8882943109
16.8699872706
12.3822176682
7.178311922
1.83439306387
64.0966653092
60.3718707432
57.4678148357
55.11257575
53.1424311757
51.4580399208
49.9942376928
48.707142323
47.5655038622
46.5459954209
45.630602279
44.8050341134
44.0577100028
43.3790850803
42.7611823029
42.1972575427