/*--------------------------------*- C++ -*----------------------------------*\
| =========                 |                                                 |
| \\      /  F ield         | OpenFOAM: The Open Source CFD Toolbox           |
|  \\    /   O peration     | Version:  2106                                  |
|   \\  /    A nd           | Website:  www.openfoam.com                      |
|    \\/     M anipulation  |                                                 |
\*---------------------------------------------------------------------------*/
FoamFile
{
    version     2.0;
    format      ascii;
    arch        "LSB;label=32;scalar=64";
    class       surfaceScalarField;
    location    "0.395";
    object      phi;
}
// * * * * * * * * * * * * * * * * * * * * * * * * * * * * * * * * * * * * * //

dimensions      [0 3 -1 0 0 0 0];

oriented        oriented;

internalField   nonuniform List<scalar> 
22100
(
3.3846120614e-05
1.61538793179e-05
2.24572110159e-05
1.1388910222e-05
1.62585547904e-05
6.19865670769e-06
1.27977783392e-05
3.46077683199e-06
1.08046448922e-05
1.99313373468e-06
9.60459219396e-06
1.20005287544e-06
8.85132469978e-06
7.53267577129e-07
8.36435610363e-06
4.86968585341e-07
8.04433844067e-06
3.20017610607e-07
7.83284387815e-06
2.11494495118e-07
7.69340097012e-06
1.3944285177e-07
7.60224435895e-06
9.1156585675e-08
7.5434818637e-06
5.87625060687e-08
7.50634521798e-06
3.7136675976e-08
7.4835059454e-06
2.28393166574e-08
7.46998531346e-06
1.35206778661e-08
7.4624208346e-06
7.56451145633e-09
7.45855291685e-06
3.86794198809e-09
7.45683403574e-06
1.7189114825e-09
7.45642747746e-06
4.06597409505e-10
7.45677739384e-06
-3.49861038468e-10
7.45746370442e-06
-6.86233796337e-10
7.45822222696e-06
-7.58413989991e-10
7.45894776054e-06
-7.25375213642e-10
7.45959234057e-06
-6.44359085922e-10
7.46013656987e-06
-5.43966723229e-10
7.46057900621e-06
-4.4216821974e-10
7.4609281006e-06
-3.48829334432e-10
7.46119673324e-06
-2.68354645626e-10
7.46139896894e-06
-2.01978052937e-10
7.46154818526e-06
-1.48965900985e-10
7.46165615948e-06
-1.07732419554e-10
7.46173257363e-06
-7.61777959683e-11
7.46178558819e-06
-5.27250757678e-11
7.46181906793e-06
-3.32311468193e-11
7.46183803595e-06
-1.8798538906e-11
7.46184729551e-06
-9.08405166031e-12
7.46185023206e-06
-2.82137346463e-12
7.46184880833e-06
1.5077391267e-12
7.4618441584e-06
4.6599599735e-12
7.46183725043e-06
6.89673050072e-12
7.46182869904e-06
8.4844013556e-12
7.46181892378e-06
9.78368918125e-12
7.46180817043e-06
1.08547353743e-11
7.46179643322e-06
1.19435088484e-11
7.46178357149e-06
1.31678534401e-11
7.46176938027e-06
1.45748989333e-11
7.46175340005e-06
1.6320749247e-11
7.46173528404e-06
1.85504119258e-11
7.46171450387e-06
2.13315160071e-11
7.4616903279e-06
2.46551631045e-11
7.46166207107e-06
2.86552799984e-11
7.46162897558e-06
3.34530033539e-11
7.4615901593e-06
3.91302181659e-11
7.4615447581e-06
4.56928213505e-11
7.4614919949e-06
5.30473760057e-11
7.46143121706e-06
6.09652145931e-11
7.46136231037e-06
6.89259073068e-11
7.46128598373e-06
7.62273862084e-11
7.4612048363e-06
8.11192843875e-11
7.46112539582e-06
7.95041965079e-11
7.46105962865e-06
6.57778130317e-11
7.46101518336e-06
4.44900203473e-11
7.46101145504e-06
3.81788648098e-12
7.46108448462e-06
-7.2729266369e-11
7.46129253024e-06
-2.07585437354e-10
7.46172993217e-06
-4.37060685037e-10
7.4625466973e-06
-8.16520901771e-10
7.46397825527e-06
-1.43115098494e-09
7.46637980244e-06
-2.40127075837e-09
7.47020053829e-06
-3.82055663603e-09
7.47665239294e-06
-6.45161741098e-09
7.48742550852e-06
-1.07729527629e-08
7.50560195387e-06
-1.81763608028e-08
7.53878748003e-06
-3.31853880954e-08
7.60799871118e-06
-6.92110188502e-08
7.77464756382e-06
-1.66648585058e-07
8.22951803051e-06
-4.5487017282e-07
9.69701236549e-06
-1.46749391736e-06
-5.45088474168e-06
1.51478980334e-05
5.02175951831e-05
1.59362847555e-05
4.42441126527e-05
1.73623936585e-05
3.77795030461e-05
1.26632669902e-05
3.26461459645e-05
8.59413441191e-06
2.89380941405e-05
5.70118586587e-06
2.63596239241e-05
3.77852319936e-06
2.4587519642e-05
2.52537185091e-06
2.33734776837e-05
1.70101046345e-06
2.25435287473e-05
1.14996645433e-06
2.19782202051e-05
7.76802966128e-07
2.15955178651e-05
5.2214517429e-07
2.13387415218e-05
3.47932964429e-07
2.11685002476e-05
2.29003872601e-07
2.10573428848e-05
1.48294161287e-07
2.09861551969e-05
9.40271320152e-08
2.09416830086e-05
5.79929729199e-08
2.09148013488e-05
3.44462584776e-08
2.08993023733e-05
1.93669920947e-08
2.08910787025e-05
9.94265091873e-09
2.08872785405e-05
4.20684711801e-09
2.08862096389e-05
7.19165598213e-10
2.0886455482e-05
-9.31899798875e-10
2.08873270852e-05
-1.62978064227e-09
2.08884667927e-05
-1.86480953741e-09
2.08896403307e-05
-1.81765013752e-09
2.08907235172e-05
-1.62694536929e-09
2.08916613397e-05
-1.37973041117e-09
2.08924391344e-05
-1.12628026287e-09
2.0893064588e-05
-8.93506036079e-10
2.08935569514e-05
-6.94002721325e-10
2.08939409698e-05
-5.32571279847e-10
2.08942427873e-05
-4.0914392501e-10
2.0894454013e-05
-2.869504488e-10
2.08946013166e-05
-1.99638039764e-10
2.08947019088e-05
-1.33457863105e-10
2.08947674787e-05
-8.39573159515e-11
2.08948081524e-05
-4.94911024167e-11
2.08948321426e-05
-2.66355655328e-11
2.0894844253e-05
-1.04909553863e-11
2.08948474212e-05
1.561794219e-12
2.0894844068e-05
1.02557034257e-11
2.08948359756e-05
1.66672228721e-11
2.08948241765e-05
2.15839644578e-11
2.0894809591e-05
2.56754470021e-11
2.08947925089e-05
2.93723127184e-11
2.08947730459e-05
3.31095853708e-11
2.08947512746e-05
3.70504214607e-11
2.08947269333e-05
4.1382176258e-11
2.08946998409e-05
4.63468643542e-11
2.08946697309e-05
5.21377078592e-11
2.08946363296e-05
5.87056981082e-11
2.08945994909e-05
6.60788393542e-11
2.08945592475e-05
7.4178552024e-11
2.0894515863e-05
8.27469119673e-11
2.08944701853e-05
9.131348118e-11
2.08944240879e-05
9.89552632838e-11
2.08943809815e-05
1.03863314686e-10
2.08943468885e-05
1.02817442611e-10
2.08943312924e-05
9.14827767537e-11
2.0894349578e-05
6.23439956109e-11
2.08944291e-05
-2.17660124289e-13
2.08946183191e-05
-1.23399530639e-10
2.08949859029e-05
-3.22774405993e-10
2.08956506845e-05
-6.60592431056e-10
2.08967194002e-05
-1.14113141056e-09
2.08983703905e-05
-1.85795023093e-09
2.09009613559e-05
-3.02720584607e-09
2.09050399852e-05
-4.8944698721e-09
2.0911475534e-05
-7.86608123107e-09
2.09216915083e-05
-1.26166957453e-08
2.09381778333e-05
-2.0306517932e-08
2.09650788004e-05
-3.33522903627e-08
2.10093334821e-05
-5.50273097162e-08
2.10841120014e-05
-9.29545777066e-08
2.12153353387e-05
-1.64408485622e-07
2.14559007e-05
-3.09776185751e-07
2.19136412673e-05
-6.24389021537e-07
2.28004220571e-05
-1.3416509296e-06
2.44439710582e-05
-3.111042876e-06
-7.0367722031e-06
2.60298581015e-05
5.35171056702e-05
1.24191795633e-05
5.29349692852e-05
1.79445307721e-05
4.96538415278e-05
1.59443952642e-05
4.58401831811e-05
1.24077931389e-05
4.24400943903e-05
9.10127489897e-06
3.97291745457e-05
6.4894431438e-06
3.76873081242e-05
4.56723826265e-06
3.61976653322e-05
3.19065319089e-06
3.5132614744e-05
2.21501697028e-06
3.43823697691e-05
1.52704789314e-06
3.38606289067e-05
1.04388603487e-06
3.35023488153e-05
7.062130909e-07
3.32596040869e-05
4.71748673748e-07
3.30975939529e-05
3.10304385166e-07
3.29913380224e-05
2.00283146675e-07
3.29230962466e-05
1.26234817599e-07
3.28804083537e-05
7.71342120421e-08
3.28546232322e-05
4.51521683383e-08
3.28397961247e-05
2.47698173622e-08
3.28318696077e-05
1.2133440923e-08
3.28280001494e-05
4.58873774864e-09
3.28270015597e-05
6.68744730503e-11
3.28271824288e-05
-1.81036560188e-09
3.28280309846e-05
-2.71299430843e-09
3.28291468989e-05
-2.93318478963e-09
3.2830294272e-05
-2.77395615059e-09
3.28313503944e-05
-2.43543994106e-09
3.28322609461e-05
-2.03640530417e-09
3.28330110316e-05
-1.64322713492e-09
3.28336067876e-05
-1.28938135135e-09
3.28340631851e-05
-9.88634630091e-10
3.28343982221e-05
-7.43742244425e-10
3.28346646813e-05
-5.52981840347e-10
3.28348811757e-05
-4.15823614165e-10
3.28350283881e-05
-2.80323331888e-10
3.28351276034e-05
-1.82930045294e-10
3.2835193439e-05
-1.15161924846e-10
3.28352352642e-05
-6.83636168551e-11
3.28352599804e-05
-3.52125710238e-11
3.28352715842e-05
-1.00629853375e-11
3.2835273626e-05
8.16060641949e-12
3.28352687363e-05
2.16279962928e-11
3.28352586562e-05
3.17524010287e-11
3.28352447297e-05
3.98626506021e-11
3.28352276787e-05
4.68139820683e-11
3.28352078848e-05
5.32390363579e-11
3.2835185792e-05
5.96687907696e-11
3.28351615124e-05
6.62490836662e-11
3.28351351452e-05
7.32735831386e-11
3.2835106656e-05
8.10890051544e-11
3.2835076359e-05
8.94021715727e-11
3.28350448281e-05
9.79144269567e-11
3.28350131109e-05
1.06115853662e-10
3.28349830117e-05
1.12971508557e-10
3.28349575128e-05
1.16750183909e-10
3.28349412827e-05
1.14971248923e-10
3.28349415205e-05
1.03374805596e-10
3.28349698063e-05
7.42045057127e-11
3.2835043544e-05
1.75246334319e-11
3.28351926757e-05
-8.69398514359e-11
3.28354686689e-05
-2.7653421597e-10
3.2835961142e-05
-6.16037674384e-10
3.2836681686e-05
-1.04331228909e-09
3.28377282343e-05
-1.70658001508e-09
3.28393599473e-05
-2.77218969161e-09
3.28419513639e-05
-4.4486501989e-09
3.28460064671e-05
-7.08163393304e-09
3.28523397209e-05
-1.12270100915e-08
3.28622640098e-05
-1.77897229244e-08
3.28779432711e-05
-2.82954440335e-08
3.29030369685e-05
-4.53998573467e-08
3.29428941617e-05
-7.32092466171e-08
3.30073413051e-05
-1.19474238053e-07
3.31133539167e-05
-1.98966941617e-07
3.32899331069e-05
-3.40987358766e-07
3.3585261928e-05
-6.05104686535e-07
3.40703848417e-05
-1.10951172524e-06
3.48113841199e-05
-2.08265007382e-06
3.56720048847e-05
-3.97166267195e-06
-7.10468307259e-06
3.57399193972e-05
5.35105667963e-05
8.90861317663e-06
5.55742231608e-05
1.58808750596e-05
5.52424838645e-05
1.62761350221e-05
5.35977876376e-05
1.40524896894e-05
5.15418496059e-05
1.11572131321e-05
4.95802819876e-05
8.45101086962e-06
4.79243530564e-05
6.22316721712e-06
4.66181412603e-05
4.4968649813e-06
4.56304685455e-05
3.2026896758e-06
4.49051197193e-05
2.25239674326e-06
4.43840926927e-05
1.56491313243e-06
4.4016696733e-05
1.07360916168e-06
4.37619704446e-05
7.26475102706e-07
4.35882720311e-05
4.84002942119e-07
4.34718728312e-05
3.16682468583e-07
4.3395362879e-05
2.02744864331e-07
4.33461926777e-05
1.26304470412e-07
4.33154551133e-05
7.588976685e-08
4.32969187814e-05
4.33061731329e-08
4.32862927534e-05
2.27594954415e-08
4.32806899777e-05
1.01915599021e-08
4.32778824145e-05
2.87452794731e-09
4.32770547886e-05
-9.82584431338e-10
4.32772728868e-05
-2.93088579959e-09
4.32779606568e-05
-3.62070742082e-09
4.3278823968e-05
-3.63697040739e-09
4.32796970248e-05
-3.30820268442e-09
4.32804947051e-05
-2.83380105652e-09
4.32811806805e-05
-2.32885168646e-09
4.32817467289e-05
-1.85509011419e-09
4.32821997238e-05
-1.44122061799e-09
4.32825522769e-05
-1.09591878613e-09
4.32828142249e-05
-8.1451974973e-10
4.32829897001e-05
-5.90810357762e-10
4.32831229205e-05
-4.13119377512e-10
4.32832083305e-05
-2.67982810532e-10
4.32832624913e-05
-1.69011930618e-10
4.32833023862e-05
-1.08142766537e-10
4.3283326839e-05
-5.95335635376e-11
4.32833389235e-05
-2.21027070154e-11
4.32833420414e-05
5.04464405448e-12
4.32833382395e-05
2.5508095191e-11
4.32833292107e-05
4.0982572369e-11
4.32833161542e-05
5.31509265389e-11
4.32832997324e-05
6.35995253552e-11
4.32832803411e-05
7.31474970454e-11
4.32832583561e-05
8.22935670691e-11
4.32832340951e-05
9.13637696704e-11
4.32832078304e-05
1.0047968061e-10
4.32831801595e-05
1.09679538086e-10
4.32831517122e-05
1.18776839957e-10
4.32831234324e-05
1.27077877685e-10
4.32830967685e-05
1.33569136794e-10
4.32830738606e-05
1.36600731581e-10
4.32830576543e-05
1.33564720627e-10
4.3283052663e-05
1.20327660893e-10
4.32830669238e-05
8.91671373961e-11
4.32831127139e-05
2.83463451743e-11
4.32832092945e-05
-7.92151053003e-11
4.32833726123e-05
-2.50408962396e-10
4.3283619051e-05
-5.22882100301e-10
4.32840663513e-05
-1.06314232569e-09
4.3284843976e-05
-1.82083283886e-09
4.32861044353e-05
-2.96662230229e-09
4.32880555153e-05
-4.72291081201e-09
4.32910477657e-05
-7.44036269939e-09
4.32956408502e-05
-1.16741365045e-08
4.33027133123e-05
-1.82991181766e-08
4.33136472959e-05
-2.87233616861e-08
4.33306002719e-05
-4.52481055268e-08
4.3356880456e-05
-7.16797372648e-08
4.33980560897e-05
-1.14384578081e-07
4.34629743357e-05
-1.84392177988e-07
4.35653511795e-05
-3.0134355619e-07
4.37251264773e-05
-5.00762444901e-07
4.3966871244e-05
-8.46849168432e-07
4.43072107579e-05
-1.44985102166e-06
4.47073877822e-05
-2.4828273435e-06
4.49264385646e-05
-4.19071394473e-06
-6.57520122237e-06
4.43969588513e-05
5.27351383213e-05
6.17347521599e-06
5.57309352959e-05
1.28850786425e-05
5.7311475505e-05
1.46955951995e-05
5.76109933129e-05
1.37529721698e-05
5.71335243886e-05
1.16346822333e-05
5.63194700777e-05
9.26506526432e-06
5.54489901098e-05
7.09364721963e-06
5.46629797659e-05
5.28287534734e-06
5.40136844425e-05
3.851985026e-06
5.35061533921e-05
2.75992785964e-06
5.31242578005e-05
1.94680882906e-06
5.28449886205e-05
1.35287847982e-06
5.26454427615e-05
9.26021123062e-07
5.25057188968e-05
6.23726961807e-07
5.240972448e-05
4.12677018323e-07
5.23450187805e-05
2.67450658251e-07
5.23022812285e-05
1.69042088927e-07
5.22746942998e-05
1.03476745552e-07
5.22573699619e-05
6.06305705229e-08
5.22468614607e-05
3.32680874303e-08
5.22407619306e-05
1.62912398563e-08
5.22374532193e-05
6.18346430827e-09
5.22359546792e-05
5.16223072959e-10
5.22354468181e-05
-2.42273392853e-09
5.22355118446e-05
-3.68537203356e-09
5.22358573697e-05
-3.98209060917e-09
5.22363116372e-05
-3.76210061345e-09
5.22367780304e-05
-3.2998184429e-09
5.22372054456e-05
-2.75590719939e-09
5.2237571188e-05
-2.22043259269e-09
5.22378685187e-05
-1.73821495102e-09
5.22381002695e-05
-1.32728488873e-09
5.22382766908e-05
-9.90592008914e-10
5.22384096822e-05
-7.23476949037e-10
5.22385101208e-05
-5.13394649666e-10
5.22385949071e-05
-3.52606562128e-10
5.22386604246e-05
-2.3445431434e-10
5.22387029299e-05
-1.50692134816e-10
5.22387356231e-05
-9.22271857563e-11
5.22387510754e-05
-3.75911791666e-11
5.22387563548e-05
-3.05162462433e-13
5.22387541913e-05
2.775864307e-11
5.22387464352e-05
4.88376036979e-11
5.22387343961e-05
6.54147025697e-11
5.22387190946e-05
7.92385671204e-11
5.22387009789e-05
9.15826693028e-11
5.22386805368e-05
1.03028181284e-10
5.2238658425e-05
1.13756351232e-10
5.22386357603e-05
1.2327079323e-10
5.22386105615e-05
1.34865922136e-10
5.22385844016e-05
1.44874545255e-10
5.2238558448e-05
1.52887952245e-10
5.22385342516e-05
1.5749698282e-10
5.22385145236e-05
1.56038742072e-10
5.22385050543e-05
1.4282911301e-10
5.22385143828e-05
1.10707916879e-10
5.22385463082e-05
5.68902369846e-11
5.22386243291e-05
-4.99337460199e-11
5.22387456004e-05
-2.00781236346e-10
5.22389428622e-05
-4.47994110184e-10
5.22392822884e-05
-8.62538081756e-10
5.22398035775e-05
-1.58440977891e-09
5.22405807919e-05
-2.59798800003e-09
5.22417470544e-05
-4.13264139044e-09
5.2243505688e-05
-6.48116422936e-09
5.22461580977e-05
-1.00922992973e-08
5.22501563163e-05
-1.56717871971e-08
5.22561915971e-05
-2.43338677355e-08
5.22653228812e-05
-3.78543079138e-08
5.22791675586e-05
-5.90926619203e-08
5.23001832442e-05
-9.2695434933e-08
5.23320850499e-05
-1.46286410315e-07
5.23802151292e-05
-2.32522170226e-07
5.24514968592e-05
-3.72625098513e-07
5.25527892439e-05
-6.02054569101e-07
5.26846307553e-05
-9.78690317573e-07
5.28247889179e-05
-1.59000875558e-06
5.28917774906e-05
-2.54981572701e-06
5.26731584606e-05
-3.9720955747e-06
-5.76633281629e-06
5.18642912793e-05
5.1983486765e-05
4.18998875315e-06
5.50586647521e-05
9.80990113718e-06
5.76386143212e-05
1.21156459562e-05
5.93259045487e-05
1.2065682202e-05
6.02280167911e-05
1.07325701662e-05
6.0592928134e-05
8.90015403739e-06
6.06482851817e-05
7.0382902572e-06
6.05531908449e-05
5.37796977149e-06
6.04029564064e-05
4.00221957522e-06
6.02479160612e-05
2.9149683497e-06
6.01107907175e-05
2.08393435306e-06
5.99990313957e-05
1.46463800721e-06
5.99125164122e-05
1.01253630509e-06
5.984792468e-05
6.88318863775e-07
5.9801021222e-05
4.59580597762e-07
5.97677366258e-05
3.00735328665e-07
5.9744595275e-05
1.92183469151e-07
5.97288166997e-05
1.19255322649e-07
5.97182685047e-05
7.11787592991e-08
5.9711362271e-05
4.01743321166e-08
5.97069429179e-05
2.07106582284e-08
5.97042090755e-05
8.91743968399e-09
5.97026001362e-05
2.12533068282e-09
5.97016957257e-05
-1.51812770511e-09
5.97012375825e-05
-3.22699199192e-09
5.97010482388e-05
-3.79247094191e-09
5.97010121467e-05
-3.72568607278e-09
5.97010566278e-05
-3.34397185768e-09
5.97011379693e-05
-2.83689312639e-09
5.97012304994e-05
-2.31257797118e-09
5.97013203567e-05
-1.82766638146e-09
5.97014008933e-05
-1.40743627065e-09
5.9701470734e-05
-1.0599719047e-09
5.97015304239e-05
-7.82762888419e-10
5.97015807673e-05
-5.63379497816e-10
5.97016206817e-05
-3.92236765238e-10
5.97016485547e-05
-2.62090922154e-10
5.97016636662e-05
-1.65605751247e-10
5.97016621378e-05
-9.05442265524e-11
5.97016542496e-05
-2.95485149301e-11
5.97016477568e-05
6.3897375046e-12
5.97016387073e-05
3.70130703825e-11
5.97016287068e-05
5.91965921583e-11
5.97016174868e-05
7.71774245371e-11
5.97016041698e-05
9.32844745858e-11
5.97015885177e-05
1.08041416557e-10
5.97015706525e-05
1.21827014885e-10
5.97015506098e-05
1.34766448006e-10
5.97015281053e-05
1.46760066193e-10
5.97015063778e-05
1.57589330262e-10
5.97014855848e-05
1.66628639723e-10
5.97014668984e-05
1.72461991426e-10
5.97014518998e-05
1.7317321504e-10
5.97014420368e-05
1.66342400344e-10
5.97014359711e-05
1.49145128957e-10
5.97014276793e-05
1.19152571522e-10
5.97014334517e-05
5.10841076401e-11
5.97014456849e-05
-6.22340478499e-11
5.97015328188e-05
-2.8802515762e-10
5.97017239492e-05
-6.39227900427e-10
5.97020257742e-05
-1.16438011032e-09
5.97024155422e-05
-1.97392960911e-09
5.9702997702e-05
-3.17971184128e-09
5.97038547109e-05
-4.98899697569e-09
5.97051005867e-05
-7.72634850383e-09
5.97069004945e-05
-1.18915524943e-08
5.97094925162e-05
-1.82633599889e-08
5.971322084e-05
-2.80617716621e-08
5.97185752652e-05
-4.32083558602e-08
5.97262365652e-05
-6.67536241643e-08
5.97371060743e-05
-1.03564671698e-07
5.97522460266e-05
-1.6142617434e-07
5.97724934899e-05
-2.5276951879e-07
5.97972558116e-05
-3.97387377349e-07
5.98213753469e-05
-6.26173978855e-07
5.98279770891e-05
-9.85291833525e-07
5.97750249702e-05
-1.53705624412e-06
5.95746135886e-05
-2.34940394086e-06
5.90689587624e-05
-3.46644111053e-06
-4.79530419724e-06
5.80979308428e-05
5.14373056407e-05
2.7526833527e-06
5.42658212737e-05
6.98138588466e-06
5.72496442251e-05
9.1318232492e-06
5.97900288318e-05
9.52529780752e-06
6.17201295042e-05
8.80246963514e-06
6.30883046086e-05
7.53197906812e-06
6.40167183052e-05
6.10987667469e-06
6.46292382423e-05
4.7654499554e-06
6.50258053692e-05
3.60565261707e-06
6.52790801368e-05
2.66169378526e-06
6.54389753952e-05
1.92403931742e-06
6.55386924446e-05
1.36492119307e-06
6.55999311877e-05
9.51297784771e-07
6.5636746176e-05
6.51504068725e-07
6.56581974034e-05
4.38129521555e-07
6.56701057073e-05
2.88827132896e-07
6.56761949911e-05
1.86094264534e-07
6.56788313244e-05
1.16619053259e-07
6.56795017865e-05
7.05083592331e-08
6.56791256155e-05
4.05505718728e-08
6.56782582929e-05
2.1578086233e-08
6.56772275061e-05
9.94838650599e-09
6.56762184392e-05
3.1346128214e-09
6.56753093826e-05
-6.08826769293e-10
6.56745409281e-05
-2.45827439458e-09
6.56739128483e-05
-3.1640722901e-09
6.56734142452e-05
-3.22676080843e-09
6.56730276479e-05
-2.95705211593e-09
6.56727340576e-05
-2.54295917374e-09
6.56725152709e-05
-2.09352971585e-09
6.56723552669e-05
-1.66732616623e-09
6.56722403014e-05
-1.29218400533e-09
6.56721582258e-05
-9.77689917127e-10
6.56720984653e-05
-7.22792714661e-10
6.56720552239e-05
-5.19951798711e-10
6.56720242325e-05
-3.61128796787e-10
6.56719993942e-05
-2.37161515621e-10
6.56719779412e-05
-1.44125125011e-10
6.56719631646e-05
-7.57849135757e-11
6.56719617896e-05
-2.8125814699e-11
6.5671960416e-05
7.7927065954e-12
6.56719532973e-05
4.42148462694e-11
6.56719434513e-05
6.91672083163e-11
6.56719314044e-05
8.93220922241e-11
6.56719178334e-05
1.0695410634e-10
6.5671902818e-05
1.23202704989e-10
6.56718861862e-05
1.38601814935e-10
6.56718678771e-05
1.53225917911e-10
6.56718483281e-05
1.66436371601e-10
6.56718295808e-05
1.763957059e-10
6.56718106296e-05
1.85576918485e-10
6.56717919768e-05
1.9108881699e-10
6.56717747393e-05
1.90386891766e-10
6.56717607752e-05
1.80121191711e-10
6.56717541474e-05
1.55665752227e-10
6.567176201e-05
1.11073092278e-10
6.56717679619e-05
4.49109242219e-11
6.56718034892e-05
-9.79345769298e-11
6.56718718427e-05
-3.5638100537e-10
6.56719717814e-05
-7.39158954452e-10
6.5672124199e-05
-1.31661734062e-09
6.56723362717e-05
-2.18564269276e-09
6.56726247083e-05
-3.46766529405e-09
6.56730061246e-05
-5.36984724555e-09
6.56734916071e-05
-8.21119210506e-09
6.56740790234e-05
-1.24782787681e-08
6.56747384525e-05
-1.89220913292e-08
6.56753846544e-05
-2.87074254598e-08
6.56758172586e-05
-4.3640589672e-08
6.56756094373e-05
-6.65455501109e-08
6.56738929018e-05
-1.01847882332e-07
6.56689354052e-05
-1.56468414555e-07
6.56572052297e-05
-2.4103911563e-07
6.56315777038e-05
-3.71759665864e-07
6.55779087246e-05
-5.72504835247e-07
6.54689781911e-05
-8.76361179988e-07
6.52556431614e-05
-1.32372093744e-06
6.48579021555e-05
-1.95166248407e-06
6.41633635003e-05
-2.77190260327e-06
-3.71389323296e-06
6.30819529727e-05
5.10850425963e-05
1.66764095494e-06
5.36118451799e-05
4.45458362751e-06
5.6687317354e-05
6.05635126574e-06
5.96894476185e-05
6.52316774465e-06
6.22997284301e-05
6.19218897338e-06
6.44136901843e-05
5.41801746525e-06
6.60471865265e-05
4.47638050587e-06
6.72686182905e-05
3.54401838967e-06
6.81598975819e-05
2.71437355985e-06
6.87977644695e-05
2.02382715467e-06
6.92467491704e-05
1.47505489388e-06
6.95579683471e-05
1.05370229014e-06
6.97704353626e-05
7.38831016274e-07
6.99131787443e-05
5.08760879125e-07
7.00073901508e-05
3.4391824897e-07
7.00682999978e-05
2.27917366372e-07
7.01067022999e-05
1.47691996757e-07
7.01301448746e-05
9.31764863539e-08
7.01438342727e-05
5.68189524862e-08
7.01513106561e-05
3.30741793508e-08
7.01549434401e-05
1.79453156228e-08
7.01562915749e-05
8.60032851547e-09
7.01563638566e-05
3.0624721056e-09
7.01557722778e-05
-1.70510512128e-11
7.01549118512e-05
-1.5976150861e-09
7.01539887029e-05
-2.24065985858e-09
7.01531205592e-05
-2.35828019448e-09
7.01523610846e-05
-2.19716767346e-09
7.01517273789e-05
-1.9089676205e-09
7.01512166507e-05
-1.5824597353e-09
7.01508159813e-05
-1.26633857616e-09
7.01505084084e-05
-9.8431198997e-10
7.01502762378e-05
-7.45305835955e-10
7.01501033838e-05
-5.4968790064e-10
7.01499768192e-05
-3.93160988672e-10
7.01498858423e-05
-2.69977103246e-10
7.0149823437e-05
-1.74503356847e-10
7.01497820726e-05
-1.0255470471e-10
7.01497538656e-05
-4.73385404483e-11
7.0149723967e-05
2.04148458069e-12
7.0149700901e-05
3.1048613119e-11
7.01496882174e-05
5.71716437052e-11
7.01496781218e-05
7.96532166158e-11
7.01496686627e-05
9.91743650748e-11
7.01496590992e-05
1.16940599084e-10
7.01496490732e-05
1.33685693072e-10
7.01496384015e-05
1.49711526899e-10
7.01496271324e-05
1.64977199432e-10
7.01496151101e-05
1.79018119105e-10
7.01496009022e-05
1.91183505099e-10
7.01495864116e-05
2.00566350958e-10
7.01495724902e-05
2.05431243158e-10
7.01495598523e-05
2.03328554239e-10
7.01495491121e-05
1.91151038615e-10
7.01495396934e-05
1.65308407361e-10
7.01495288568e-05
1.21830203464e-10
7.01495227956e-05
5.07580875239e-11
7.01495114325e-05
-8.66542321067e-11
7.01495237029e-05
-3.68661051246e-10
7.01495478706e-05
-7.6318306743e-10
7.01495722914e-05
-1.34107673425e-09
7.01495758176e-05
-2.18911315789e-09
7.01495318912e-05
-3.42331498338e-09
7.01493870677e-05
-5.22472511188e-09
7.01490425699e-05
-7.86640169087e-09
7.01483234353e-05
-1.17588002385e-08
7.01469281938e-05
-1.7526492319e-08
7.0144345675e-05
-2.61246303227e-08
7.01397024278e-05
-3.89971038769e-08
7.01315181829e-05
-5.83611887332e-08
7.01173046215e-05
-8.76343491949e-08
7.00929096772e-05
-1.32073478426e-07
7.00512481106e-05
-1.99377482198e-07
6.99803531737e-05
-3.00864571514e-07
6.9860270826e-05
-4.52422325536e-07
6.96585764792e-05
-6.74666658334e-07
6.93253898722e-05
-9.90534166576e-07
6.87912151856e-05
-1.4174874023e-06
6.79735455627e-05
-1.9542329235e-06
-2.55475920408e-06
6.68144118342e-05
5.08804133875e-05
7.87227706422e-07
5.31704667244e-05
2.16453058127e-06
5.62177505054e-05
3.0090676427e-06
5.94382707408e-05
3.30264768417e-06
6.24449707712e-05
3.18548912118e-06
6.50382543841e-05
2.82473403533e-06
6.71548681694e-05
2.35976695229e-06
6.88135668963e-05
1.88531993033e-06
7.00731731481e-05
1.45476760139e-06
7.10056703748e-05
1.09133023574e-06
7.16812669404e-05
7.99458650528e-07
7.21614265603e-05
5.73542983368e-07
7.24966077145e-05
4.03650129277e-07
7.27264844451e-05
2.78884352721e-07
7.28812834594e-05
1.89119365439e-07
7.2983473275e-05
1.25727606426e-07
7.3049417075e-05
8.17481857766e-08
7.3090819182e-05
5.17743347081e-08
7.31159131266e-05
3.1724960641e-08
7.31303976567e-05
1.85896129237e-08
7.31381524193e-05
1.01905549016e-08
7.31417729501e-05
4.97985965241e-09
7.31429608229e-05
1.87476456849e-09
7.31428146215e-05
1.29401373856e-10
7.31419916383e-05
-7.74331560331e-10
7.31409089711e-05
-1.15769917933e-09
7.31397943836e-05
-1.2433578314e-09
7.31387672628e-05
-1.16966685652e-09
7.31378800589e-05
-1.02140701092e-09
7.31371465676e-05
-8.48695706209e-10
7.31365595385e-05
-6.79023867934e-10
7.31361015584e-05
-5.26089723922e-10
7.31357517062e-05
-3.95266729045e-10
7.31354893901e-05
-2.87254731881e-10
7.31352963011e-05
-1.99963264631e-10
7.31351567235e-05
-1.30424934624e-10
7.31350574694e-05
-7.53163762968e-11
7.31349859485e-05
-3.11477970796e-11
7.31349330433e-05
5.44327857478e-12
7.31349034899e-05
3.15897343649e-11
7.31348805637e-05
5.40036124769e-11
7.31348640115e-05
7.38667764079e-11
7.31348519896e-05
9.1933779094e-11
7.31348426279e-05
1.08878185038e-10
7.31348346644e-05
1.25314436974e-10
7.31348272402e-05
1.41569240894e-10
7.31348197107e-05
1.57676515954e-10
7.3134811614e-05
1.73395389636e-10
7.31348026986e-05
1.88195542757e-10
7.31347929515e-05
2.01195391131e-10
7.31347824345e-05
2.11356251808e-10
7.31347712015e-05
2.16890669592e-10
7.31347593673e-05
2.15280881328e-10
7.31347472057e-05
2.03359349181e-10
7.31347354008e-05
1.77149672075e-10
7.3134725235e-05
1.32124847699e-10
7.31347085673e-05
6.74447723779e-11
7.3134686226e-05
-6.45960551261e-11
7.31346453762e-05
-3.28181123493e-10
7.31345802702e-05
-6.98173401336e-10
7.31344672192e-05
-1.22796155477e-09
7.31342630569e-05
-1.98471669376e-09
7.3133899898e-05
-3.05973975821e-09
7.31332628224e-05
-4.5870394528e-09
7.31321588722e-05
-6.76184234486e-09
7.31302664731e-05
-9.86583053043e-09
7.31270581479e-05
-1.43177553343e-08
7.31216792075e-05
-2.07453570181e-08
7.31127176938e-05
-3.00352985876e-08
7.30978697068e-05
-4.35130095408e-08
7.30734285043e-05
-6.31930685334e-08
7.30334987251e-05
-9.21437018525e-08
7.29685702148e-05
-1.34448946628e-07
7.28636301751e-05
-1.95924355913e-07
7.26955195246e-05
-2.84311496116e-07
7.24297492821e-05
-4.08896252692e-07
7.20179754362e-05
-5.78760132696e-07
7.13990267358e-05
-7.98538364291e-07
7.0507388337e-05
-1.06259434567e-06
-1.34585365976e-06
6.92984830567e-05
5.07871727598e-05
5.50372536677e-11
5.29516503195e-05
5.32450295852e-11
5.59606891357e-05
2.89590079503e-11
5.92633228009e-05
1.41778902961e-11
6.24488095613e-05
2.54587561846e-12
6.52735502653e-05
-6.45668723299e-12
6.76333299677e-05
-1.24849391784e-11
6.95186657219e-05
-1.55121778392e-11
7.09734496457e-05
-1.59749154436e-11
7.20647947318e-05
-1.44688305342e-11
7.28642654071e-05
-1.16342784965e-11
7.34378168963e-05
-8.14021631805e-12
7.38414719991e-05
-4.66431585329e-12
7.41203584573e-05
-1.86990233508e-12
7.43094782975e-05
-3.2734369808e-13
7.44352064374e-05
-4.77069190274e-13
7.45169571616e-05
-2.54919074415e-12
7.45687377432e-05
-6.29044009469e-12
7.46004737154e-05
-1.10575115358e-11
7.46190791899e-05
-1.58712776225e-11
7.46292893959e-05
-1.9617316245e-11
7.46342905447e-05
-2.1193824993e-11
7.46361855943e-05
-2.01333547579e-11
7.46363329383e-05
-1.77172380109e-11
7.4635573976e-05
-1.5158610752e-11
7.46344284506e-05
-1.19742661767e-11
7.46331936834e-05
-8.27709884722e-12
7.46320285047e-05
-4.23218720761e-12
7.46310069433e-05
4.19442105672e-13
7.46301536789e-05
4.82807415779e-12
7.46294654889e-05
9.42055267185e-12
7.46289253732e-05
1.43443050765e-11
7.46285107981e-05
1.9482093651e-11
7.4628198776e-05
2.49816647625e-11
7.46279680998e-05
3.09213844229e-11
7.46278003929e-05
3.74777664487e-11
7.46276805207e-05
4.47379759356e-11
7.46275968046e-05
5.27380195447e-11
7.46275410122e-05
6.14101801629e-11
7.4627502285e-05
7.06355521632e-11
7.46274763681e-05
8.01979328939e-11
7.46274594985e-05
9.10602622674e-11
7.4627448745e-05
1.03076505461e-10
7.46274417861e-05
1.16165985594e-10
7.46274371179e-05
1.30360268487e-10
7.46274336876e-05
1.45478721844e-10
7.46274307214e-05
1.61144648497e-10
7.46274276674e-05
1.76937591001e-10
7.46274240824e-05
1.92204644917e-10
7.4627419635e-05
2.06003826908e-10
7.46274141688e-05
2.17195156719e-10
7.46274074391e-05
2.23932347448e-10
7.46273991225e-05
2.23941831911e-10
7.46273884714e-05
2.14228305794e-10
7.46273741823e-05
1.91381720139e-10
7.46273547448e-05
1.51495185286e-10
7.46273294763e-05
9.27347930839e-11
7.4627284136e-05
-1.91313177957e-11
7.46271965489e-05
-2.40397343703e-10
7.46270615665e-05
-5.62761546228e-10
7.46268395817e-05
-1.00545618739e-09
7.46264699259e-05
-1.61456405424e-09
7.46258564575e-05
-2.44564346082e-09
7.46248424343e-05
-3.57234354448e-09
7.46231728791e-05
-5.09158187496e-09
7.46204314013e-05
-7.1236727119e-09
7.46159511563e-05
-9.83693060156e-09
7.46086749207e-05
-1.34686790642e-08
7.45968672851e-05
-1.82273318398e-08
7.45777287531e-05
-2.43741977753e-08
7.45468418264e-05
-3.23059036988e-08
7.44974812195e-05
-4.27829601598e-08
7.44189159151e-05
-5.58835877425e-08
7.42947558796e-05
-7.17643638089e-08
7.4100634754e-05
-9.01903039297e-08
7.38017539417e-05
-1.1001527126e-07
7.33514785775e-05
-1.28484529985e-07
7.26933726356e-05
-1.40432144747e-07
7.17694534149e-05
-1.38674954004e-07
-1.14727500727e-07
7.0538327475e-05
5.07871716923e-05
-7.87116577407e-07
5.29516493901e-05