/*--------------------------------*- C++ -*----------------------------------*\
| =========                 |                                                 |
| \\      /  F ield         | OpenFOAM: The Open Source CFD Toolbox           |
|  \\    /   O peration     | Version:  2106                                  |
|   \\  /    A nd           | Website:  www.openfoam.com                      |
|    \\/     M anipulation  |                                                 |
\*---------------------------------------------------------------------------*/
FoamFile
{
    version     2.0;
    format      ascii;
    arch        "LSB;label=32;scalar=64";
    class       volVectorField;
    location    "0.44";
    object      U;
}
// * * * * * * * * * * * * * * * * * * * * * * * * * * * * * * * * * * * * * //

dimensions      [0 1 -1 0 0 0 0];

internalField   nonuniform List<vector> 
9600
(
(0.6753961783 0.157677438753 0)
(0.563826157618 0.102430806372 0)
(0.381538933631 0.0510646914521 0)
(0.283853187215 0.0244589881682 0)
(0.23228102723 0.0119348230127 0)
(0.201907711414 0.00623035761564 0)
(0.183178411196 0.00352192621257 0)
(0.17127199063 0.00212007580355 0)
(0.16351224682 0.00132523594025 0)
(0.15839266604 0.000841456692746 0)
(0.155010702767 0.000534135846437 0)
(0.152789983997 0.000335039421426 0)
(0.151348694637 0.000205521476094 0)
(0.150429247149 0.00012179196738 0)
(0.149856459862 6.8433478832e-05 0)
(0.149511122832 3.51729387105e-05 0)
(0.14931251404 1.50865663498e-05 0)
(0.149206464875 3.50381801904e-06 0)
(0.149157085535 -2.70727323479e-06 0)
(0.149140975407 -5.61152991481e-06 0)
(0.149143258401 -6.52714454259e-06 0)
(0.149154655529 -6.4181935111e-06 0)
(0.149169594686 -5.78223277101e-06 0)
(0.149184966731 -4.92836341392e-06 0)
(0.149199137468 -4.04257349093e-06 0)
(0.149211386748 -3.22407004264e-06 0)
(0.149221525363 -2.51526636521e-06 0)
(0.149229653287 -1.92802032978e-06 0)
(0.14923600909 -1.45787054379e-06 0)
(0.149240876041 -1.09120411562e-06 0)
(0.149244536464 -8.11591896535e-07 0)
(0.149247244632 -6.01721817289e-07 0)
(0.149249219488 -4.47625580559e-07 0)
(0.149250639484 -3.36262243055e-07 0)
(0.14925164487 -2.56243856611e-07 0)
(0.14925234737 -1.99632780482e-07 0)
(0.149252830727 -1.59571349488e-07 0)
(0.149253158349 -1.31365064329e-07 0)
(0.149253375972 -1.10433187865e-07 0)
(0.149253517288 -9.42712583818e-08 0)
(0.1492536081 -8.19967210458e-08 0)
(0.149253664439 -7.30666589514e-08 0)
(0.149253697918 -6.94833973187e-08 0)
(0.149253715484 -7.01481035737e-08 0)
(0.149253723284 -7.32272652088e-08 0)
(0.149253725719 -7.78346182667e-08 0)
(0.149253724056 -8.35345907216e-08 0)
(0.14925372127 -9.1216488287e-08 0)
(0.149253717789 -9.98684691513e-08 0)
(0.149253713833 -1.09040351036e-07 0)
(0.14925370985 -1.1837801652e-07 0)
(0.149253705902 -1.28029383964e-07 0)
(0.149253702839 -1.38613956168e-07 0)
(0.149253699378 -1.49583654883e-07 0)
(0.149253695831 -1.61205719788e-07 0)
(0.149253692456 -1.73575209896e-07 0)
(0.149253688891 -1.86864434884e-07 0)
(0.149253685212 -2.01083957774e-07 0)
(0.149253680928 -2.15964826412e-07 0)
(0.149253677151 -2.32189982272e-07 0)
(0.14925367347 -2.49549600513e-07 0)
(0.149253669447 -2.67910283966e-07 0)
(0.149253665556 -2.87350731142e-07 0)
(0.14925366157 -3.07902699882e-07 0)
(0.149253657741 -3.29884169139e-07 0)
(0.149253653335 -3.53004557197e-07 0)
(0.149253648646 -3.77635981811e-07 0)
(0.149253644079 -4.03988173382e-07 0)
(0.149253639096 -4.31805757832e-07 0)
(0.149253634067 -4.61158601355e-07 0)
(0.149253628976 -4.92084463621e-07 0)
(0.149253623913 -5.24943153053e-07 0)
(0.149253618379 -5.59666180533e-07 0)
(0.149253611983 -5.96202009248e-07 0)
(0.149253605303 -6.34837640896e-07 0)
(0.149253598275 -6.75473311607e-07 0)
(0.149253591017 -7.18098491817e-07 0)
(0.149253583726 -7.62789085742e-07 0)
(0.149253576621 -8.09824943167e-07 0)
(0.149253569649 -8.59237279604e-07 0)
(0.14925356242 -9.10783124676e-07 0)
(0.149253555263 -9.64692802511e-07 0)
(0.149253548171 -1.02126349753e-06 0)
(0.149253540725 -1.08056608417e-06 0)
(0.149253532858 -1.14246708169e-06 0)
(0.149253525117 -1.20702948134e-06 0)
(0.149253517938 -1.27445059905e-06 0)
(0.149253510793 -1.34465248353e-06 0)
(0.149253503448 -1.41767355102e-06 0)
(0.14925349629 -1.49369912507e-06 0)
(0.149253489711 -1.57285695897e-06 0)
(0.149253483521 -1.65487641108e-06 0)
(0.149253477715 -1.73963371307e-06 0)
(0.149253473162 -1.82750444294e-06 0)
(0.149253470204 -1.91854265649e-06 0)
(0.149253469084 -2.01243412952e-06 0)
(0.149253470238 -2.1088080172e-06 0)
(0.14925347432 -2.20799553281e-06 0)
(0.149253481384 -2.31008287225e-06 0)
(0.149253490807 -2.41415060673e-06 0)
(0.14925350426 -2.51994010072e-06 0)
(0.149253523728 -2.62745899295e-06 0)
(0.149253550123 -2.73677397183e-06 0)
(0.149253584428 -2.84762144283e-06 0)
(0.149253628407 -2.960148672e-06 0)
(0.149253685502 -3.07535025734e-06 0)
(0.149253757687 -3.1929905745e-06 0)
(0.149253847957 -3.31284844026e-06 0)
(0.149253962011 -3.43598562307e-06 0)
(0.149254105406 -3.56520672164e-06 0)
(0.149254283996 -3.70621752046e-06 0)
(0.149254505959 -3.86373704919e-06 0)
(0.149254782917 -4.0329216934e-06 0)
(0.149255127092 -4.2121874155e-06 0)
(0.14925555263 -4.40132593907e-06 0)
(0.149256079328 -4.60113101467e-06 0)
(0.149256731559 -4.81273860684e-06 0)
(0.149257539665 -5.03731928669e-06 0)
(0.149258540259 -5.2757221421e-06 0)
(0.149259779623 -5.5300870721e-06 0)
(0.149261315869 -5.80320475744e-06 0)
(0.149263216964 -6.09767629661e-06 0)
(0.149265568898 -6.41829697276e-06 0)
(0.14926848945 -6.78005125362e-06 0)
(0.149272145955 -7.238243098e-06 0)
(0.14927667451 -7.91632086358e-06 0)
(0.149282234848 -8.76651021533e-06 0)
(0.149289098711 -9.74315078349e-06 0)
(0.149297597165 -1.08418629703e-05 0)
(0.149308123297 -1.20743008418e-05 0)
(0.149321158971 -1.34586429861e-05 0)
(0.149337302079 -1.50194714427e-05 0)
(0.149357295867 -1.6788178445e-05 0)
(0.149382059804 -1.88034795242e-05 0)
(0.149412736602 -2.11150977825e-05 0)
(0.149450744173 -2.37844193103e-05 0)
(0.149497842335 -2.6888950829e-05 0)
(0.149556218639 -3.05267059558e-05 0)
(0.149628595849 -3.48231749075e-05 0)
(0.149718368486 -3.99394571434e-05 0)
(0.149829764568 -4.60748053129e-05 0)
(0.149968070869 -5.34839450218e-05 0)
(0.150139914599 -6.24946047664e-05 0)
(0.15035361881 -7.35268476107e-05 0)
(0.150619677751 -8.71218578922e-05 0)
(0.150951374316 -0.000103974905404 0)
(0.15136562531 -0.000124994781825 0)
(0.151884113011 -0.000151374465879 0)
(0.152534847387 -0.000184686348131 0)
(0.153354400829 -0.000227022603159 0)
(0.154391156366 -0.00028119881461 0)
(0.155710344433 -0.00035116711158 0)
(0.157402616084 -0.000443186662931 0)
(0.159601433907 -0.000570139846845 0)
(0.162524795393 -0.000768154120399 0)
(0.166580726741 -0.00115761104405 0)
(0.172696249492 -0.00216511135219 0)
(0.183648897975 -0.00537490944905 0)
(0.20779634884 -0.016762691507 0)
(0.260979902924 -0.0582658870247 0)
(0.977201166881 0.296997124664 0)
(0.962687456493 0.250387272825 0)
(0.820646033425 0.158581009002 0)
(0.697824896131 0.0957993445386 0)
(0.610491665944 0.0579132764804 0)
(0.549133316614 0.0359038516683 0)
(0.506705991116 0.022930935885 0)
(0.477662026347 0.014978880003 0)
(0.457815306861 0.0099097327601 0)
(0.444277683115 0.00658331006563 0)
(0.435087232739 0.0043619876082 0)
(0.428895561578 0.00286682650368 0)
(0.4247680412 0.00185972093513 0)
(0.422054230986 0.00118457213876 0)
(0.42030104967 0.000736109498832 0)
(0.419193676607 0.000442158071671 0)
(0.418514608257 0.000252859251432 0)
(0.418114832773 0.000133739122432 0)
(0.417893375846 6.1051672702e-05 0)
(0.417782732682 1.857719777e-05 0)
(0.417738473419 -4.63436586667e-06 0)
(0.417731935774 -1.60104325365e-05 0)
(0.417745151301 -2.03067374881e-05 0)
(0.417767174429 -2.06094476769e-05 0)
(0.41779162282 -1.88553390927e-05 0)
(0.417815037422 -1.62209831988e-05 0)
(0.417835757904 -1.33835555982e-05 0)
(0.417853190075 -1.07052334378e-05 0)
(0.417867339451 -8.35667499142e-06 0)
(0.417878511455 -6.39316868608e-06 0)
(0.417887137879 -4.80758320534e-06 0)
(0.417893671927 -3.55929563061e-06 0)
(0.417898539108 -2.5982432208e-06 0)
(0.417902110773 -1.87237885199e-06 0)
(0.41790469248 -1.33162108853e-06 0)
(0.417906533103 -9.3479625227e-07 0)
(0.41790782688 -6.47004883314e-07 0)
(0.417908724036 -4.41615363364e-07 0)
(0.417909336493 -2.96138143632e-07 0)
(0.417909746317 -1.93711781768e-07 0)
(0.41791001593 -1.23838695526e-07 0)
(0.417910186957 -7.73618329242e-08 0)
(0.417910290989 -4.93255555346e-08 0)
(0.417910351196 -3.36283968629e-08 0)
(0.417910383385 -2.5597640686e-08 0)
(0.417910398085 -2.23795885064e-08 0)
(0.417910400024 -2.03590967586e-08 0)
(0.417910396006 -1.90457586855e-08 0)
(0.417910389554 -1.85418612663e-08 0)
(0.417910381674 -1.90176559712e-08 0)
(0.417910373133 -2.01062126453e-08 0)
(0.417910363669 -2.1186015829e-08 0)
(0.417910354897 -2.33567081262e-08 0)
(0.417910345848 -2.56370198182e-08 0)
(0.417910336364 -2.80182760022e-08 0)
(0.417910326702 -3.05295159089e-08 0)
(0.417910316531 -3.3327306819e-08 0)
(0.417910306301 -3.66294568207e-08 0)
(0.417910294979 -3.95498698632e-08 0)
(0.417910283667 -4.27538601798e-08 0)
(0.417910272561 -4.60534493067e-08 0)
(0.417910261026 -4.90585365465e-08 0)
(0.417910249418 -5.19083397161e-08 0)
(0.417910237256 -5.46173781805e-08 0)
(0.41791022499 -5.78827356791e-08 0)
(0.417910211748 -6.11672105405e-08 0)
(0.417910197437 -6.46688054678e-08 0)
(0.41791018294 -6.88133981639e-08 0)
(0.417910167782 -7.31790364569e-08 0)
(0.417910152127 -7.77453414601e-08 0)
(0.417910135738 -8.231701816e-08 0)
(0.417910118823 -8.74258362886e-08 0)
(0.417910101167 -9.30112862992e-08 0)
(0.417910082054 -9.86032209667e-08 0)
(0.417910062187 -1.04443982495e-07 0)
(0.417910041808 -1.10403669613e-07 0)
(0.417910020926 -1.16407334161e-07 0)
(0.417909999469 -1.22399889169e-07 0)
(0.417909977677 -1.28758514437e-07 0)
(0.417909955934 -1.35707167809e-07 0)
(0.417909933666 -1.42744306827e-07 0)
(0.417909910782 -1.49991389182e-07 0)
(0.417909887455 -1.57892558679e-07 0)
(0.417909863661 -1.66548962011e-07 0)
(0.41790983938 -1.75517813632e-07 0)
(0.41790981496 -1.84629933208e-07 0)
(0.417909791046 -1.9430666007e-07 0)
(0.4179097673 -2.04563551828e-07 0)
(0.417909743361 -2.15265872109e-07 0)
(0.417909719745 -2.26464671105e-07 0)
(0.417909697447 -2.38529086316e-07 0)
(0.41790967665 -2.51332876326e-07 0)
(0.417909657049 -2.64583170528e-07 0)
(0.41790963967 -2.78862343156e-07 0)
(0.417909625769 -2.94438835277e-07 0)
(0.417909616381 -3.11080732074e-07 0)
(0.417909612026 -3.28400519949e-07 0)
(0.417909613704 -3.47237296877e-07 0)
(0.417909623188 -3.68934898674e-07 0)
(0.417909641045 -3.93758623826e-07 0)
(0.417909669766 -4.23328176354e-07 0)
(0.4179097129 -4.57227605238e-07 0)
(0.417909773514 -4.95644198612e-07 0)
(0.41790985494 -5.38470643718e-07 0)
(0.417909961015 -5.85765741956e-07 0)
(0.417910099241 -6.39755603282e-07 0)
(0.417910277009 -7.01158323185e-07 0)
(0.417910501917 -7.69611195815e-07 0)
(0.417910784331 -8.45609027793e-07 0)
(0.417911134518 -9.28561347623e-07 0)
(0.417911567248 -1.01384052225e-06 0)
(0.417912113525 -1.09461336777e-06 0)
(0.417912806838 -1.18287485748e-06 0)
(0.417913675917 -1.28670480764e-06 0)
(0.417914757949 -1.41047952597e-06 0)
(0.417916102825 -1.56004015018e-06 0)
(0.417917773288 -1.74253120865e-06 0)
(0.417919847744 -1.96730274454e-06 0)
(0.417922421194 -2.24430987579e-06 0)
(0.417925611606 -2.58671737747e-06 0)
(0.417929567656 -3.01344017599e-06 0)
(0.417934468859 -3.54559964517e-06 0)
(0.417940534355 -4.209368839e-06 0)
(0.417948027018 -5.04348310737e-06 0)
(0.417957261859 -6.12462142837e-06 0)
(0.417968700204 -7.59515159945e-06 0)
(0.417982930899 -9.48822247602e-06 0)
(0.418000602897 -1.18523044692e-05 0)
(0.418022517056 -1.47822928902e-05 0)
(0.41804967863 -1.84079064559e-05 0)
(0.418083335038 -2.28909244627e-05 0)
(0.418125033444 -2.84322222662e-05 0)
(0.418176694685 -3.52817951836e-05 0)
(0.418240698036 -4.37465502531e-05 0)
(0.418319997823 -5.42091849964e-05 0)
(0.418418260748 -6.71450106698e-05 0)
(0.418540037867 -8.31449354954e-05 0)
(0.418690984156 -0.000102944596099 0)
(0.418878134328 -0.000127463756282 0)
(0.419110258723 -0.000157862517148 0)
(0.419398290766 -0.000195594347364 0)
(0.419755890038 -0.000242493696521 0)
(0.420200171651 -0.000300893100848 0)
(0.420752635078 -0.000373771808317 0)
(0.421440391849 -0.000464965830117 0)
(0.422297771988 -0.000579443784229 0)
(0.42336850931 -0.000723724299878 0)
(0.424708735854 -0.000906477631147 0)
(0.426391176485 -0.00113942627337 0)
(0.428511275173 -0.00143880206745 0)
(0.431196461176 -0.00182782895988 0)
(0.434620994815 -0.00234144387483 0)
(0.439031297001 -0.00303636940456 0)
(0.444792801842 -0.00401548252814 0)
(0.452482757664 -0.0054926624946 0)
(0.46306797037 -0.00797155757289 0)
(0.478240546978 -0.0127402607787 0)
(0.501274317649 -0.0232943306698 0)
(0.538517020315 -0.049349320162 0)
(0.593923514667 -0.114132590427 0)
(1.03387038394 0.239240959155 0)
(1.08314081124 0.293634382387 0)
(1.03294437478 0.23913193379 0)
(0.954408208701 0.174539016038 0)
(0.880112583817 0.121551463031 0)
(0.818677616116 0.0832335947569 0)
(0.771466796429 0.0568258125603 0)
(0.736691576846 0.0388125737943 0)
(0.71167210449 0.0264913187712 0)
(0.693953132004 0.018023576817 0)
(0.681568203412 0.012187620483 0)
(0.673018601932 0.00816650255956 0)
(0.667192231032 0.00540556495525 0)
(0.663277746506 0.00352226225269 0)
(0.660690308864 0.0022496109203 0)
(0.659012734762 0.00140002713996 0)
(0.657950528067 0.000841455692388 0)
(0.657298074113 0.000481124147971 0)
(0.656913530867 0.000254195116492 0)
(0.656700340069 0.000115711478685 0)
(0.656593730534 3.47977378856e-05 0)
(0.656551016189 -9.46368549676e-06 0)
(0.656544672425 -3.10078937128e-05 0)
(0.656557369949 -3.90719976103e-05 0)
(0.656578552035 -3.95436138977e-05 0)
(0.656602075011 -3.61156090054e-05 0)
(0.656624605782 -3.10267880163e-05 0)
(0.656644543592 -2.5565497386e-05 0)
(0.65666131861 -2.04211442206e-05 0)
(0.656674933551 -1.59135869064e-05 0)
(0.656685684206 -1.21473565732e-05 0)
(0.656693984174 -9.10499192777e-06 0)
(0.656700270672 -6.71083466264e-06 0)
(0.656704954405 -4.86841686619e-06 0)
(0.65670838941 -3.47580028195e-06 0)
(0.656710872331 -2.44054877039e-06 0)
(0.656712641001 -1.68235335361e-06 0)
(0.656713883505 -1.13619014522e-06 0)
(0.656714743958 -7.49383491269e-07 0)
(0.65671532862 -4.78950558018e-07 0)
(0.656715719653 -2.94405399726e-07 0)
(0.656715975276 -1.71047263571e-07 0)
(0.656716138117 -9.01262189028e-08 0)
(0.656716238016 -3.78404462633e-08 0)
(0.656716295697 -5.01292456566e-09 0)
(0.656716327568 1.37097640325e-08 0)
(0.656716341914 2.48135483454e-08 0)
(0.656716344962 3.17208269779e-08 0)
(0.656716340579 3.57657565745e-08 0)
(0.65671633199 3.82972399739e-08 0)
(0.656716321955 4.028699747e-08 0)
(0.656716310362 4.31240289014e-08 0)
(0.656716298918 4.57381209644e-08 0)
(0.656716287387 4.84727610151e-08 0)
(0.656716275391 5.16350235952e-08 0)
(0.656716263061 5.52071720157e-08 0)
(0.656716249878 5.92518087049e-08 0)
(0.656716236773 6.30793982411e-08 0)
(0.656716222872 6.79750106137e-08 0)
(0.656716208826 7.35783060775e-08 0)
(0.656716195026 7.93701133471e-08 0)
(0.656716180748 8.57305034507e-08 0)
(0.656716166164 9.24913059268e-08 0)
(0.656716150556 1.0003592345e-07 0)
(0.656716134573 1.07623093894e-07 0)
(0.656716117738 1.15531959329e-07 0)
(0.656716099527 1.24294098258e-07 0)
(0.656716080814 1.33324122581e-07 0)
(0.656716061336 1.42751353265e-07 0)
(0.656716041301 1.52615357825e-07 0)
(0.656716020275 1.63255210942e-07 0)
(0.656715998276 1.74378256261e-07 0)
(0.656715975567 1.85663711814e-07 0)
(0.656715951467 1.97855838909e-07 0)
(0.656715926388 2.11046334383e-07 0)
(0.65671590061 2.251855495e-07 0)
(0.656715874223 2.40200610771e-07 0)
(0.656715847046 2.56272790768e-07 0)
(0.656715819074 2.7343959342e-07 0)
(0.656715790979 2.91167905091e-07 0)
(0.656715762418 3.09688403625e-07 0)
(0.656715732969 3.29280634285e-07 0)
(0.656715702725 3.49793871321e-07 0)
(0.656715672067 3.71019299629e-07 0)
(0.65671564121 3.93173895004e-07 0)
(0.656715610093 4.16726895606e-07 0)
(0.656715579148 4.41274911215e-07 0)
(0.656715548457 4.66405556713e-07 0)
(0.656715517952 4.9246118002e-07 0)
(0.656715487936 5.20017461764e-07 0)
(0.656715459335 5.48825236332e-07 0)
(0.656715432833 5.78409844979e-07 0)
(0.65671540823 6.09142096279e-07 0)
(0.656715386417 6.41053518425e-07 0)
(0.656715369006 6.73842593384e-07 0)
(0.656715357586 7.07174335138e-07 0)
(0.656715352794 7.41262707578e-07 0)
(0.656715355144 7.76054346169e-07 0)
(0.656715366467 8.1059630879e-07 0)
(0.656715387499 8.46118619734e-07 0)
(0.65671542312 8.84852176039e-07 0)
(0.656715479574 9.24208858717e-07 0)
(0.656715561062 9.61769877095e-07 0)
(0.656715672894 9.96075388611e-07 0)
(0.656715820259 1.02686098721e-06 0)
(0.656716012655 1.05144962077e-06 0)
(0.65671626205 1.06647660777e-06 0)
(0.65671658144 1.070028721e-06 0)
(0.656716988855 1.05953006669e-06 0)
(0.656717508676 1.03255910762e-06 0)
(0.656718170508 9.88839771665e-07 0)
(0.656718994271 9.30384768385e-07 0)
(0.65672000889 8.41790818198e-07 0)
(0.656721267941 7.08659817388e-07 0)
(0.65672283122 5.17682555707e-07 0)
(0.656724770836 2.52565032667e-07 0)
(0.656727175941 -1.06623230214e-07 0)
(0.656730158256 -5.86525395724e-07 0)
(0.656733854876 -1.21869335154e-06 0)
(0.6567384332 -2.04077698457e-06 0)
(0.656744104158 -3.10352212396e-06 0)
(0.656751128278 -4.46863523724e-06 0)
(0.656759827378 -6.21116060559e-06 0)
(0.656770599445 -8.42301780403e-06 0)
(0.65678393254 -1.12133596704e-05 0)
(0.656800435874 -1.47032634352e-05 0)
(0.656820866209 -1.90957155459e-05 0)
(0.656846157615 -2.46350960754e-05 0)
(0.656877472766 -3.16096845159e-05 0)
(0.656916253311 -4.03764808017e-05 0)
(0.656964281826 -5.13773696392e-05 0)
(0.65702376455 -6.51588597713e-05 0)
(0.657097439523 -8.24011288119e-05 0)
(0.657188698599 -0.000103944711424 0)
(0.657301748976 -0.000130834282016 0)
(0.657441812544 -0.000164370384193 0)
(0.657615372157 -0.000206171254856 0)
(0.65783048139 -0.000258252949671 0)
(0.658097148589 -0.00032312818055 0)
(0.658427839404 -0.000403951097989 0)
(0.65883809077 -0.000504686099474 0)
(0.659347294662 -0.00063032798882 0)
(0.659979713906 -0.000787208008905 0)
(0.66076577864 -0.00098339631915 0)
(0.661743791404 -0.00122926357374 0)
(0.662962148734 -0.00153824600677 0)
(0.66448232397 -0.00192794969802 0)
(0.666382938604 -0.00242178761315 0)
(0.668765405666 -0.00305146560275 0)
(0.671762034041 -0.00386099132346 0)
(0.675548008723 -0.00491348672781 0)
(0.680359815576 -0.00630360498135 0)
(0.686524541817 -0.00818186088019 0)
(0.694507917562 -0.0108055057135 0)
(0.704993973383 -0.0146506590932 0)
(0.719002266286 -0.0206640926621 0)
(0.738004628583 -0.0308070896832 0)
(0.7639949043 -0.0491579738934 0)
(0.799018892233 -0.0839623242172 0)
(0.839336664079 -0.148920740605 0)
(1.03384128234 0.171306942153 0)
(1.10231584534 0.275556745673 0)
(1.11663620528 0.266312374165 0)
(1.09207924796 0.219892601488 0)
(1.05195419983 0.168210315519 0)
(1.01022221531 0.123615337575 0)
(0.973507721768 0.0888850604693 0)
(0.943885951375 0.0630494625244 0)
(0.921162804242 0.0442607987268 0)
(0.904299828215 0.0307744347418 0)
(0.892086139622 0.0211830159303 0)
(0.883411238411 0.0144172986379 0)
(0.877355066885 0.00968544155916 0)
(0.873196219377 0.00640758760891 0)
(0.870388068313 0.00416172410442 0)
(0.868526263915 0.00264232235567 0)
(0.867317308466 0.00162947744219 0)
(0.866551595302 0.00096602576369 0)
(0.866081668733 0.00054057324499 0)
(0.865805312169 0.000274926238881 0)
(0.865652736739 0.000114790859728 0)
(0.865577103401 2.29556024557e-05 0)
(0.865547489423 -2.57255091658e-05 0)
(0.865543951645 -4.80462825778e-05 0)
(0.865553998601 -5.49258626088e-05 0)
(0.865570000999 -5.33263014829e-05 0)
(0.865587538978 -4.75734487393e-05 0)
(0.865604229072 -4.02463203638e-05 0)
(0.865618942504 -3.27996022656e-05 0)
(0.865631288146 -2.59815499817e-05 0)
(0.865641288989 -2.01152076136e-05 0)
(0.865649172895 -1.52753628439e-05 0)
(0.865655250328 -1.1403651103e-05 0)
(0.865659848954 -8.38315955405e-06 0)
(0.865663269881 -6.07448849323e-06 0)
(0.865665775964 -4.3414308918e-06 0)
(0.865667584224 -3.06074788343e-06 0)
(0.865668870276 -2.12862947892e-06 0)
(0.865669772921 -1.46108757062e-06 0)
(0.865670395314 -9.88750451378e-07 0)
(0.865670817791 -6.59638924441e-07 0)
(0.865671098769 -4.33807853523e-07 0)
(0.865671281329 -2.81762304862e-07 0)
(0.865671396045 -1.81572555413e-07 0)
(0.865671463485 -1.16554264126e-07 0)
(0.865671500966 -7.68763423952e-08 0)
(0.865671518212 -5.37969535062e-08 0)
(0.865671522712 -4.15188491944e-08 0)
(0.865671519825 -3.55385143195e-08 0)
(0.865671512719 -3.31348943883e-08 0)
(0.86567150381 -3.34615209131e-08 0)
(0.865671492242 -3.52811639845e-08 0)
(0.865671479506 -3.86291117308e-08 0)
(0.865671466071 -4.31761821115e-08 0)
(0.865671451706 -4.83542035676e-08 0)
(0.865671436628 -5.42871919387e-08 0)
(0.865671420061 -6.02536480969e-08 0)
(0.865671403479 -6.66933707741e-08 0)
(0.865671386086 -7.27021997931e-08 0)
(0.86567136761 -7.81529726853e-08 0)
(0.865671348883 -8.36774187165e-08 0)
(0.865671329531 -8.91653127868e-08 0)
(0.865671309957 -9.50099288273e-08 0)
(0.865671289213 -1.00827992126e-07 0)
(0.865671267646 -1.07278852467e-07 0)
(0.86567124534 -1.1453156802e-07 0)
(0.86567122143 -1.21883925386e-07 0)
(0.865671196475 -1.29612053955e-07 0)
(0.865671170442 -1.37766624009e-07 0)
(0.865671143624 -1.46541054887e-07 0)
(0.865671115562 -1.55693520248e-07 0)
(0.86567108595 -1.65253883675e-07 0)
(0.865671055364 -1.75682690298e-07 0)
(0.865671023387 -1.86497272799e-07 0)
(0.865670990136 -1.97402593413e-07 0)
(0.865670955805 -2.08363748712e-07 0)
(0.865670920578 -2.19667728769e-07 0)
(0.865670884467 -2.31327446298e-07 0)
(0.865670847199 -2.4331141659e-07 0)
(0.865670809338 -2.56275099876e-07 0)
(0.865670770921 -2.70404860153e-07 0)
(0.865670731511 -2.85507317413e-07 0)
(0.865670690939 -3.01447741264e-07 0)
(0.865670649543 -3.18466584958e-07 0)
(0.865670607847 -3.36552843839e-07 0)
(0.865670565761 -3.55402169934e-07 0)
(0.865670523364 -3.75412579642e-07 0)
(0.865670481083 -3.96908563104e-07 0)
(0.865670439514 -4.19722612845e-07 0)
(0.8656703989 -4.43578066938e-07 0)
(0.865670359656 -4.68979511727e-07 0)
(0.865670322726 -4.96915978963e-07 0)
(0.865670288489 -5.27411092164e-07 0)
(0.865670257793 -5.60493597974e-07 0)
(0.865670232012 -5.96600112289e-07 0)
(0.865670213126 -6.36662530817e-07 0)
(0.865670202611 -6.81405834332e-07 0)
(0.865670201438 -7.30965705132e-07 0)
(0.865670213463 -7.86407463946e-07 0)
(0.86567024311 -8.47620991906e-07 0)
(0.865670291701 -9.13022117977e-07 0)
(0.86567036117 -9.85116220597e-07 0)
(0.865670457985 -1.06667703093e-06 0)
(0.865670590312 -1.16078357416e-06 0)
(0.86567076489 -1.26908141128e-06 0)
(0.865670991499 -1.39460148551e-06 0)
(0.865671284026 -1.54262478519e-06 0)
(0.865671657878 -1.71839519418e-06 0)
(0.865672131809 -1.92840127965e-06 0)
(0.865672728646 -2.18191953948e-06 0)
(0.865673479981 -2.49577872318e-06 0)
(0.86567442185 -2.88878131625e-06 0)
(0.865675596667 -3.36951421728e-06 0)
(0.865677060712 -3.95617970639e-06 0)
(0.865678881447 -4.67364547071e-06 0)
(0.865681142772 -5.55278269474e-06 0)
(0.865683948041 -6.6309688416e-06 0)
(0.86568742692 -7.95624398065e-06 0)
(0.865691740622 -9.58865781423e-06 0)
(0.865697084881 -1.15996062002e-05 0)
(0.865703704541 -1.40794415196e-05 0)
(0.86571190411 -1.71411589265e-05 0)
(0.865722060156 -2.09255370071e-05 0)
(0.865734637019 -2.5607977725e-05 0)
(0.865750207171 -3.14098484446e-05 0)
(0.865769484004 -3.86028820222e-05 0)
(0.865793349805 -4.75177780567e-05 0)
(0.86582289489 -5.85567019473e-05 0)
(0.865859471727 -7.2219020324e-05 0)
(0.865904757952 -8.9130799782e-05 0)
(0.865960831673 -0.000110072835643 0)
(0.866030264052 -0.00013601275931 0)
(0.866116245322 -0.000168155434893 0)
(0.866222728168 -0.000207996302889 0)
(0.866354612087 -0.000257393347147 0)
(0.866517974985 -0.000318659309234 0)
(0.86672035907 -0.000394674738855 0)
(0.866971132057 -0.000489035045503 0)
(0.867281924962 -0.000606224887252 0)
(0.867667202979 -0.000751861020542 0)
(0.86814497581 -0.000933001030745 0)
(0.868737687249 -0.00115853418919 0)
(0.869473359295 -0.00143971058983 0)
(0.870387042247 -0.00179083868965 0)
(0.871522703667 -0.00223024933054 0)
(0.872935667611 -0.00278162254642 0)
(0.874695824646 -0.00347586452287 0)
(0.876891930884 -0.00435386148512 0)
(0.879637406679 -0.00547062180237 0)
(0.883078349561 -0.00690179731409 0)
(0.887404765425 -0.00875440956753 0)
(0.892866507559 -0.0111854146635 0)
(0.899795785375 -0.0144354502562 0)
(0.908637734984 -0.0188925746978 0)
(0.919987066664 -0.0252155736283 0)
(0.934609577309 -0.0345710627586 0)
(0.953365241658 -0.0490557725691 0)
(0.976871010918 -0.0723169803372 0)
(1.00447190818 -0.110122448952 0)
(1.03039268121 -0.169123559923 0)
(1.02388346144 0.119321980836 0)
(1.08875436358 0.231514420587 0)
(1.13660482892 0.25286894211 0)
(1.15406272769 0.228905047769 0)
(1.15000112755 0.188337384826 0)
(1.1353762391 0.146577292796 0)
(1.11757777954 0.11016482145 0)
(1.10059200055 0.080837606577 0)
(1.0861224153 0.0582502009371 0)
(1.07458762178 0.0413417854382 0)
(1.0657867981 0.0289362830875 0)
(1.05928156725 0.0199770200207 0)
(1.05459132781 0.0135949292744 0)
(1.05128026895 0.00910742714603 0)
(1.04898736284 0.00599313325765 0)
(1.04742905399 0.00386144205578 0)
(1.04639046273 0.00242413692916 0)
(1.04571299508 0.00147134874866 0)
(1.04528206348 0.000852136766277 0)
(1.0450163821 0.000459263104628 0)
(1.04485925898 0.000217489183607 0)
(1.044771829 7.47176151632e-05 0)
(1.04472784682 -4.64571470195e-06 0)
(1.0447099809 -4.44454917808e-05 0)
(1.04470705473 -6.053546712e-05 0)
(1.04471197665 -6.30917281118e-05 0)
(1.04472041725 -5.85422275747e-05 0)
(1.04472985878 -5.0809655597e-05 0)
(1.04473893383 -4.21791563957e-05 0)
(1.04474698029 -3.3891922698e-05 0)
(1.04475375929 -2.65472753567e-05 0)
(1.0447592674 -2.03622385551e-05 0)
(1.04476361821 -1.53374007443e-05 0)
(1.04476697897 -1.13675071589e-05 0)
(1.04476952484 -8.30076494989e-06 0)
(1.04477142125 -5.97696724347e-06 0)
(1.04477281126 -4.24511776761e-06 0)
(1.04477381414 -2.97342900631e-06 0)
(1.04477452864 -2.05421530158e-06 0)
(1.04477502901 -1.39827270905e-06 0)
(1.04477537405 -9.36537107412e-07 0)
(1.04477560735 -6.15774106042e-07 0)
(1.04477576162 -3.96290132828e-07 0)
(1.04477586106 -2.48890741153e-07 0)
(1.04477592102 -1.50433015898e-07 0)
(1.04477595551 -8.63338171947e-08 0)
(1.04477597295 -4.53019635953e-08 0)
(1.04477597895 -1.93923890001e-08 0)
(1.04477597716 -3.49692758948e-09 0)
(1.04477596958 5.81365780676e-09 0)
(1.04477595908 9.76863066965e-09 0)
(1.04477594569 1.12090196635e-08 0)
(1.04477593106 1.16979700403e-08 0)
(1.04477591585 1.15302199956e-08 0)
(1.04477589959 1.10963208022e-08 0)
(1.04477588273 1.00317874359e-08 0)
(1.04477586459 9.36293762187e-09 0)
(1.04477584636 8.60594071815e-09 0)
(1.04477582764 7.9134811351e-09 0)
(1.04477580788 8.15463589599e-09 0)
(1.04477578761 9.03980048186e-09 0)
(1.0447757663 1.05966099513e-08 0)
(1.0447757444 1.21886229708e-08 0)
(1.04477572095 1.4133322309e-08 0)
(1.04477569613 1.6240396535e-08 0)
(1.04477567053 1.79755888158e-08 0)
(1.04477564346 1.98483460483e-08 0)
(1.04477561523 2.19122441676e-08 0)
(1.04477558564 2.4201735934e-08 0)
(1.04477555506 2.62894632736e-08 0)
(1.0447755232 2.83018745066e-08 0)
(1.04477548951 3.06838779689e-08 0)
(1.04477545467 3.31036428059e-08 0)
(1.04477541854 3.57410315072e-08 0)
(1.04477538117 3.88936253803e-08 0)
(1.04477534246 4.27372902692e-08 0)
(1.04477530252 4.69540883529e-08 0)
(1.04477526139 5.12498506683e-08 0)
(1.04477521858 5.59377075335e-08 0)
(1.04477517464 6.08214814082e-08 0)
(1.04477512988 6.55835936112e-08 0)
(1.04477508405 7.02438538482e-08 0)
(1.04477503685 7.51284523914e-08 0)
(1.04477498861 8.01912949002e-08 0)
(1.04477494002 8.50587913656e-08 0)
(1.04477489076 8.98176304331e-08 0)
(1.04477484086 9.45496820183e-08 0)
(1.04477479099 9.91845434837e-08 0)
(1.04477474171 1.03505293522e-07 0)
(1.04477469287 1.07568811047e-07 0)
(1.04477464455 1.11327200828e-07 0)
(1.044774598 1.13940829892e-07 0)
(1.04477455395 1.1507457278e-07 0)
(1.04477451322 1.14656507449e-07 0)
(1.04477447698 1.1230642952e-07 0)
(1.04477444694 1.06704990669e-07 0)
(1.04477442478 9.62739103873e-08 0)
(1.04477441137 8.06717977581e-08 0)
(1.04477440957 5.82823391185e-08 0)
(1.04477442312 2.60257272386e-08 0)
(1.04477445575 -1.99085414425e-08 0)
(1.04477451174 -8.04552366315e-08 0)
(1.04477459649 -1.58005129523e-07 0)
(1.04477471828 -2.57514760738e-07 0)
(1.04477488492 -3.83380398801e-07 0)
(1.04477510611 -5.40353758505e-07 0)
(1.04477539595 -7.35935008278e-07 0)
(1.04477577111 -9.79165489701e-07 0)
(1.04477625211 -1.28038524347e-06 0)
(1.04477686218 -1.65044858031e-06 0)
(1.04477763223 -2.10529723327e-06 0)
(1.04477859993 -2.66608374571e-06 0)
(1.04477980928 -3.35620357277e-06 0)
(1.0447813176 -4.20689405741e-06 0)
(1.04478319545 -5.25619181083e-06 0)
(1.04478553079 -6.5511804866e-06 0)
(1.04478843118 -8.1483812807e-06 0)
(1.04479203016 -1.0118140245e-05 0)
(1.04479649548 -1.25501213808e-05 0)
(1.04480203157 -1.55521579793e-05 0)
(1.04480889204 -1.92575974493e-05 0)
(1.04481739198 -2.3833422439e-05 0)
(1.04482792272 -2.94887268723e-05 0)
(1.04484096688 -3.64832346501e-05 0)
(1.04485711788 -4.51377817945e-05 0)
(1.04487711442 -5.58512771061e-05 0)
(1.04490187175 -6.91161852567e-05 0)
(1.04493252221 -8.55384249155e-05 0)
(1.0449704675 -0.00010586607982 0)
(1.04501744472 -0.000131027801981 0)
(1.04507560789 -0.000162178921614 0)
(1.04514762113 -0.00020074987976 0)
(1.04523678779 -0.00024851845387 0)
(1.04534720089 -0.000307692167874 0)
(1.04548393106 -0.000381012000223 0)
(1.04565326405 -0.00047188707286 0)
(1.0458629916 -0.000584558440921 0)
(1.04612278444 -0.000724317071807 0)
(1.04644463865 -0.000897764294829 0)
(1.04684344624 -0.00111315296492 0)
(1.04733771297 -0.00138083495895 0)
(1.04795044682 -0.00171382866472 0)
(1.04871028977 -0.00212857319657 0)
(1.04965293215 -0.00264591750446 0)
(1.05082292296 -0.00329246463648 0)
(1.05227597125 -0.00410241650988 0)
(1.05408189013 -0.00512014294538 0)