/*--------------------------------*- C++ -*----------------------------------*\
| =========                 |                                                 |
| \\      /  F ield         | OpenFOAM: The Open Source CFD Toolbox           |
|  \\    /   O peration     | Version:  2106                                  |
|   \\  /    A nd           | Website:  www.openfoam.com                      |
|    \\/     M anipulation  |                                                 |
\*---------------------------------------------------------------------------*/
FoamFile
{
    version     2.0;
    format      ascii;
    arch        "LSB;label=32;scalar=64";
    class       surfaceScalarField;
    location    "0.1";
    object      phi;
}
// * * * * * * * * * * * * * * * * * * * * * * * * * * * * * * * * * * * * * //

dimensions      [0 3 -1 0 0 0 0];

oriented        oriented;

internalField   nonuniform List<scalar> 
22100
(
3.38461200857e-05
1.61538799149e-05
2.24572086625e-05
1.13889110321e-05
1.62585504814e-05
6.19865787519e-06
1.2797771858e-05
3.4607783625e-06
1.0804636102e-05
1.99313552598e-06
9.60458124173e-06
1.20005463301e-06
8.85131226803e-06
7.53268725118e-07
8.36434380383e-06
4.8696818619e-07
8.04432918563e-06
3.20014332892e-07
7.83284228255e-06
2.1148665434e-07
7.69341363083e-06
1.39428486638e-07
7.60228000064e-06
9.11335743834e-08
7.54355131083e-06
5.87287257577e-08
7.50646121698e-06
3.70901688251e-08
7.48368280371e-06
2.27784733433e-08
7.47023837894e-06
1.34444504219e-08
7.46276558458e-06
7.47281622302e-09
7.45900214465e-06
3.76351995541e-09
7.45738836286e-06
1.61396857395e-09
7.4571196801e-06
2.68972830401e-10
7.45760891945e-06
-4.88904221379e-10
7.45842251858e-06
-8.13297021148e-10
7.45931143836e-06
-8.88702215402e-10
7.46016452705e-06
-8.52954756969e-10
7.46092881077e-06
-7.64188799778e-10
7.46158197581e-06
-6.53054154413e-10
7.46212069081e-06
-5.38558509604e-10
7.46255240799e-06
-4.31527270895e-10
7.46288980733e-06
-3.3721675957e-10
7.46314741112e-06
-2.57466986221e-10
7.46333964766e-06
-1.92156869359e-10
7.46347974909e-06
-1.40061236942e-10
7.46357914528e-06
-9.93655681351e-11
7.463647583e-06
-6.83909591042e-11
7.4636924007e-06
-4.47383911391e-11
7.46371778696e-06
-2.52672713496e-11
7.46372928569e-06
-1.13483034171e-11
7.46373216998e-06
-2.72960409216e-12
7.46372941443e-06
2.88026045714e-12
7.4637227615e-06
6.73200558977e-12
7.46371356111e-06
9.24256767225e-12
7.4637027276e-06
1.0843056052e-11
7.46369076755e-06
1.19158141452e-11
7.4636778959e-06
1.27494645031e-11
7.46366413159e-06
1.3570312207e-11
7.46364933445e-06
1.45551248527e-11
7.46363321654e-06
1.58354358873e-11
7.46361535958e-06
1.75176791863e-11
7.46359530336e-06
1.964761833e-11
7.46357252759e-06
2.23163204265e-11
7.46354643508e-06
2.56421977115e-11
7.46351632596e-06
2.97563537597e-11
7.46348135677e-06
3.47841565159e-11
7.46344053049e-06
4.08077613857e-11
7.46339276944e-06
4.78404334905e-11
7.46333706283e-06
5.58229587382e-11
7.46327260979e-06
6.45946582574e-11
7.46319891744e-06
7.38454963106e-11
7.46311643371e-06
8.2600394078e-11
7.4630272808e-06
8.91986351932e-11
7.46293724192e-06
8.99999545511e-11
7.46285849122e-06
7.85903231855e-11
7.4628009451e-06
5.72359831529e-11
7.46278245499e-06
1.80590013471e-11
7.46283933736e-06
-5.7361065771e-11
7.46303107484e-06
-1.92157319441e-10
7.46345432347e-06
-4.23500975614e-10
7.4642628268e-06
-8.0858989813e-10
7.46569781584e-06
-1.43503503595e-09
7.46812317725e-06
-2.42542354407e-09
7.47199513627e-06
-3.87197594471e-09
7.47857986401e-06
-6.58466380324e-09
7.48957036678e-06
-1.09903406187e-08
7.50810790938e-06
-1.85373066482e-08
7.5419039469e-06
-3.37957874025e-08
7.61228356626e-06
-7.03793497846e-08
7.78169068636e-06
-1.69406871355e-07
8.24446160564e-06
-4.62770740364e-07
9.74070495586e-06
-1.49624330553e-06
-5.58743377896e-06
1.53281386969e-05
5.02175942136e-05
1.59362853193e-05
4.42441092376e-05
1.73623954097e-05
3.77794967423e-05
1.26632698931e-05
3.26461364783e-05
8.59413819377e-06
2.89380817347e-05
5.7011898421e-06
2.63596099132e-05
3.77852600099e-06
2.45875070109e-05
2.52537114544e-06
2.3373471931e-05
1.70100279105e-06
2.25435387318e-05
1.14994713085e-06
2.1978258949e-05
7.76766177176e-07
2.15956031205e-05
5.2208422563e-07
2.13388960281e-05
3.47840715707e-07
2.11687515372e-05
2.28873327853e-07
2.10577226348e-05
1.48119168081e-07
2.09866980365e-05
9.38031312822e-08
2.09424247864e-05
5.77177732268e-08
2.09157769477e-05
3.412083116e-08
2.09005449856e-05
1.89958268135e-08
2.08926270526e-05
9.53240217538e-09
2.08891323615e-05
3.76423006632e-09
2.08884883661e-05
1.55606348835e-10
2.08890161239e-05
-1.34066522418e-09
2.08902109951e-05
-2.08330769374e-09
2.08916690529e-05
-2.31080683248e-09
2.08931423309e-05
-2.23724303048e-09
2.08944991881e-05
-2.00962754442e-09
2.08956795598e-05
-1.71860353857e-09
2.08966660789e-05
-1.41773537019e-09
2.08974657367e-05
-1.13663646104e-09
2.08980983781e-05
-8.89962148638e-10
2.08985900827e-05
-6.83780464675e-10
2.08989704028e-05
-5.20315971018e-10
2.08992575051e-05
-3.86372770492e-10
2.08994530844e-05
-2.63816807289e-10
2.08995835475e-05
-1.74983918737e-10
2.08996663232e-05
-1.0778173053e-10
2.08997141003e-05
-5.88655039497e-11
2.08997391086e-05
-2.75293589781e-11
2.08997487136e-05
-6.59072840397e-12
2.0899747414e-05
8.09821994442e-12
2.08997386905e-05
1.796543721e-11
2.08997249933e-05
2.44400557591e-11
2.08997078598e-05
2.88165674505e-11
2.08996881722e-05
3.20789456224e-11
2.08996663687e-05
3.49216778274e-11
2.08996425601e-05
3.7828583278e-11
2.08996166118e-05
4.1155535507e-11
2.08995882102e-05
4.52009301556e-11
2.08995570315e-05
5.00589522969e-11
2.08995227338e-05
5.58848877482e-11
2.08994850054e-05
6.28005789558e-11
2.08994435971e-05
7.08523131703e-11
2.08993983425e-05
7.9984268827e-11
2.08993492703e-05
8.99840306569e-11
2.08992968691e-05
1.00414046038e-10
2.08992424955e-05
1.10422468882e-10
2.08991889817e-05
1.18365285173e-10
2.08991413888e-05
1.21636990963e-10
2.08991087329e-05
1.15311157174e-10
2.08991058025e-05
9.19886114952e-11
2.08991583792e-05
3.70485520513e-11
2.08993147462e-05
-7.83691753834e-11
2.08996446124e-05
-2.73329013302e-10
2.09002663519e-05
-6.04366890414e-10
2.09013021253e-05
-1.09372899704e-09
2.09029187068e-05
-1.8091654532e-09
2.09054826367e-05
-2.98768082259e-09
2.09095550854e-05
-4.88120643296e-09
2.09160273844e-05
-7.90746833667e-09
2.09263614134e-05
-1.27595068378e-08
2.09431172066e-05
-2.06277212375e-08
2.09705195543e-05
-3.39867889387e-08
2.10157119041e-05
-5.61823071756e-08
2.10922072819e-05
-9.50322952355e-08
2.12266133233e-05
-1.68201434035e-07
2.14732933004e-05
-3.17058997222e-07
2.19434645753e-05
-6.39577967191e-07
2.2857072527e-05
-1.37637852508e-06
2.45582693841e-05
-3.19744011386e-06
-7.267453982e-06
2.623828949e-05
5.35171045747e-05
1.24191804365e-05
5.29349656928e-05
1.79445337839e-05
4.96538350469e-05
1.59444001281e-05
4.58401737902e-05
1.24077990674e-05
4.24400829982e-05
9.10128024649e-06
3.97291636271e-05
6.48944496114e-06
3.76873025217e-05
4.56723182506e-06
3.61976732315e-05
3.19063167939e-06
3.51326487077e-05
2.21497133648e-06
3.43824476685e-05
1.52696703095e-06
3.38607745933e-05
1.04375725367e-06
3.3502592414e-05
7.06022938262e-07
3.32599817551e-05
4.71484045266e-07
3.30981471014e-05
3.0995384521e-07
3.29921119406e-05
1.99838291085e-07
3.29241382621e-05
1.25691496755e-07
3.28817658649e-05
7.6493404079e-08
3.28563417775e-05
4.44202587759e-08
3.28419170654e-05
2.39575879621e-08
3.28344322269e-05
1.12495743576e-08
3.28309769838e-05
3.61128874866e-09
3.28303979625e-05
-7.61319872253e-10
3.2831025997e-05
-2.71111347644e-09
3.28323055427e-05
-3.59015438565e-09
3.28338229708e-05
-3.75443859304e-09
3.28353360165e-05
-3.52238447368e-09
3.28367172491e-05
-3.09952546463e-09
3.28379096405e-05
-2.60985845761e-09
3.28388978182e-05
-2.12463675039e-09
3.28396894575e-05
-1.68151724766e-09
3.28403032993e-05
-1.29759051396e-09
3.28407608451e-05
-9.77826905644e-10
3.28410956e-05
-7.21045285192e-10
3.28413573115e-05
-5.25380150921e-10
3.28415574665e-05
-3.74933843242e-10
3.2841684282e-05
-2.34366644636e-10
3.28417639181e-05
-1.38286749992e-10
3.28418104922e-05
-7.39320633178e-11
3.28418342221e-05
-3.01968304995e-11
3.284184142e-05
9.75814209873e-13
3.28418372264e-05
2.21594991884e-11
3.28418254022e-05
3.61549043087e-11
3.28418084539e-05
4.55436367947e-11
3.28417879463e-05
5.22806006129e-11
3.28417647915e-05
5.76989158806e-11
3.28417394446e-05
6.27116071771e-11
3.28417120239e-05
6.80150585137e-11
3.28416823525e-05
7.42356982132e-11
3.2841650421e-05
8.13328294712e-11
3.28416162711e-05
8.94350585826e-11
3.28415800553e-05
9.85639619844e-11
3.28415421338e-05
1.0852544038e-10
3.28415031966e-05
1.18859204767e-10
3.28414645287e-05
1.28711072107e-10
3.28414284888e-05
1.36585367712e-10
3.2841399251e-05
1.3982510412e-10
3.28413837151e-05
1.34050538272e-10
3.28413919864e-05
1.13480551598e-10
3.28414406759e-05
6.66978146318e-11
3.28415573427e-05
-2.47218965044e-11
3.28417919995e-05
-1.97891511822e-10
3.28422311212e-05
-5.18035382306e-10
3.28429141265e-05
-9.57018491703e-10
3.28439121684e-05
-1.60304625783e-09
3.28454786844e-05
-2.66070423588e-09
3.28480102065e-05
-4.34096848184e-09
3.28520199073e-05
-6.99760809527e-09
3.28583406018e-05
-1.12021108601e-08
3.28683185974e-05
-1.78855621983e-08
3.28841762793e-05
-2.86171636145e-08
3.29096724666e-05
-4.61237781051e-08
3.29503248398e-05
-7.46389295514e-08
3.30162795384e-05
-1.22136710979e-07
3.31250725345e-05
-2.03824912458e-07
3.33067496067e-05
-3.49878114239e-07
3.36114346834e-05
-6.21743754154e-07
3.41136755594e-05
-1.14181858446e-06
3.4885241312e-05
-2.1479440812e-06
3.57955829813e-05
-4.1077819038e-06
-7.39226606108e-06
3.59203948971e-05
5.35105658297e-05
8.90861432745e-06
5.55742201043e-05
1.58808790224e-05
5.52424785688e-05
1.62761412589e-05
5.35977804122e-05
1.40524968391e-05
5.15418417908e-05
1.11572184794e-05
4.95802765607e-05
8.4510097908e-06
4.79243553993e-05
6.22315258837e-06
4.66181600185e-05
4.49682670778e-06
4.5630516566e-05
3.20261453267e-06
4.49052148648e-05
2.25226860001e-06
4.43842584546e-05
1.56471363528e-06
4.40169625007e-05
1.07331890964e-06
4.37623713124e-05
7.26075233585e-07
4.35888481029e-05
4.83477016706e-07
4.34726679491e-05
3.16018412104e-07
4.33964227994e-05
2.01936702963e-07
4.33475627575e-05
1.25353663169e-07
4.33171774328e-05
7.48059689394e-08
4.32990286006e-05
4.2106910172e-08
4.3288811242e-05
2.14674273797e-08
4.32835814949e-05
8.84145037626e-09
4.32812478536e-05
1.57262821504e-09
4.32808939964e-05
-2.35702342125e-09
4.32815226113e-05
-4.21854349848e-09
4.32826001222e-05
-4.83167724016e-09
4.32838226243e-05
-4.74456760536e-09
4.32850177583e-05
-4.29434862208e-09
4.32860966804e-05
-3.68854752998e-09
4.32870216398e-05
-3.04947609318e-09
4.32877850168e-05
-2.4448661074e-09
4.32883961355e-05
-1.90871127837e-09
4.32888724025e-05
-1.45406326448e-09
4.3289231773e-05
-1.0803186817e-09
4.32894857251e-05
-7.79168378275e-10
4.32896517643e-05
-5.40765404948e-10
4.32897682663e-05
-3.50650273201e-10
4.32898271848e-05
-1.97004864196e-10
4.32898697925e-05
-1.16369872542e-10
4.3289892824e-05
-5.30942863904e-11
4.32899005735e-05
-6.69867065479e-12
4.32898975852e-05
2.51266317392e-11
4.3289887178e-05
4.64269677539e-11
4.3289871527e-05
6.09628134468e-11
4.32898519212e-05
7.15805383219e-11
4.32898291404e-05
8.01022058888e-11
4.32898036263e-05
8.77693915499e-11
4.32897756379e-05
9.54753791271e-11
4.3289745411e-05
1.03886817073e-10
4.32897131256e-05
1.13032636687e-10
4.32896790463e-05
1.22981509986e-10
4.32896436673e-05
1.33539141721e-10
4.32896077832e-05
1.44174465436e-10
4.32895726152e-05
1.53943210037e-10
4.32895400366e-05
1.613199737e-10
4.32895128333e-05
1.63891348691e-10
4.32894949519e-05
1.57826164653e-10
4.32894921591e-05
1.36953111997e-10
4.32895150813e-05
9.06722517877e-11
4.32895801802e-05
1.68311803377e-12
4.32897113607e-05
-1.5596940656e-10
4.32899130348e-05
-3.99870542626e-10
4.32902990063e-05
-9.04510378543e-10
4.32909982349e-05
-1.65683987573e-09
4.32921834504e-05
-2.78881517315e-09
4.32940581971e-05
-4.53587314102e-09
4.3296974207e-05
-7.25729742373e-09
4.33015008133e-05
-1.15244810389e-08
4.33085359219e-05
-1.82373961209e-08
4.33194966457e-05
-2.88463742242e-08
4.3336603023e-05
-4.57235628134e-08
4.33632748109e-05
-7.27954987514e-08
4.34052684013e-05
-1.16632341439e-07
4.34717626084e-05
-1.88630552427e-07
4.35770480794e-05
-3.09109892413e-07
4.37420439676e-05
-5.14873607466e-07
4.39929103601e-05
-8.72609938132e-07
4.43485658405e-05
-1.49747380929e-06
4.47726473605e-05
-2.57202528306e-06
4.50234842915e-05
-4.35861874127e-06
-6.88799692142e-06
4.45192149571e-05
5.27351375888e-05
6.17347646753e-06
5.57309331111e-05
1.28850830065e-05
5.73114720222e-05
1.46956019293e-05
5.76109890326e-05
1.37529794285e-05
5.71335206463e-05
1.16346864671e-05
5.63194694657e-05
9.26506057644e-06
5.54489969873e-05
7.09362469781e-06
5.46630008316e-05
5.28282256043e-06
5.40137293348e-05
3.85188582815e-06
5.35062352015e-05
2.7597626353e-06
5.31243934823e-05
1.94655532145e-06
5.2845199182e-05
1.3525131804e-06
5.26457531705e-05
9.2552117896e-07
5.25061576456e-05
6.23072451691e-07
5.24103227144e-05
4.1185329947e-07
5.23458089857e-05
2.66450519529e-07
5.23032954792e-05
1.67867437931e-07
5.22759621912e-05
1.0213968484e-07
5.22589161034e-05
5.91535048181e-08
5.22487016565e-05
3.16823615449e-08
5.22429045968e-05
1.46389100662e-08
5.2239956794e-05
4.5207345133e-09
5.22387482499e-05
-1.14822562513e-09
5.22385556291e-05
-4.02565214661e-09
5.22389140774e-05
-5.18980328764e-09
5.22395294894e-05
-5.35963354771e-09
5.2240226654e-05
-4.99121618613e-09
5.22409062739e-05
-4.36798582066e-09
5.22415168447e-05
-3.65999300249e-09
5.22420354393e-05
-2.96348382806e-09
5.22424568271e-05
-2.33012084345e-09
5.22427853697e-05
-1.782568031e-09
5.22430318169e-05
-1.32665299457e-09
5.22432120545e-05
-9.5923367922e-10
5.22433422533e-05
-6.70759877125e-10
5.22434394274e-05
-4.47613443338e-10
5.22435248918e-05
-2.82268279559e-10
5.22435756753e-05
-1.66973533424e-10
5.22436128419e-05
-9.01242909333e-11
5.22436277189e-05
-2.15199683957e-11
5.22436294396e-05
2.33494858472e-11
5.22436222472e-05
5.34518520555e-11
5.224360905e-05
7.39046685639e-11
5.22435916812e-05
8.86223861057e-11
5.22435711995e-05
1.00193275085e-10
5.22435484327e-05
1.1009784166e-10
5.22435241756e-05
1.19260809166e-10
5.22434963467e-05
1.31209773229e-10
5.22434664035e-05
1.42449041347e-10
5.22434347405e-05
1.5415999627e-10
5.22434017936e-05
1.66121836427e-10
5.22433683284e-05
1.77420330374e-10
5.22433355451e-05
1.86622846128e-10
5.22433053135e-05
1.91527350427e-10
5.22432806716e-05
1.88559927992e-10
5.22432673695e-05
1.71198039741e-10
5.22432817411e-05
1.22712839297e-10
5.22433282036e-05
4.43689500138e-11
5.22434305324e-05
-1.0058887397e-10
5.22435830375e-05
-3.08635182346e-10
5.22438671001e-05
-6.84299663447e-10
5.22443350134e-05
-1.37290518987e-09
5.22450414587e-05
-2.36380214366e-09
5.22461234434e-05
-3.87127403922e-09
5.22477860138e-05
-6.19882141158e-09
5.22503347051e-05
-9.80628002569e-09
5.22542282921e-05
-1.54182708258e-08
5.22601708949e-05
-2.41801564921e-08
5.22692467973e-05
-3.79224155726e-08
5.2283120906e-05
-5.95976971453e-08
5.23043361533e-05
-9.40106120011e-08
5.23367488541e-05
-1.49044764486e-07
5.23859432714e-05
-2.37824620257e-07
5.24592399381e-05
-3.82406182908e-07
5.25641069944e-05
-6.19740237689e-07
5.27019002706e-05
-1.01040284295e-06
5.28511452429e-05
-1.64671843546e-06
5.29300367543e-05
-2.65091660057e-06
5.27219910983e-05
-4.15057307658e-06
-6.07442043109e-06
5.19084146025e-05
5.19834862805e-05
4.18998991347e-06
5.50586634783e-05
9.8099052989e-06
5.76386126815e-05
1.21156522885e-05
5.93259030457e-05
1.20656886463e-05
6.0228016312e-05
1.07325727946e-05
6.05929300634e-05
8.90014644052e-06
6.06482915579e-05
7.0382628673e-06
6.0553204487e-05
5.37790937701e-06
6.04029810367e-05
4.00210912001e-06
6.02479564118e-05
2.91478717619e-06
6.01108526223e-05
2.08365905078e-06
5.99991218599e-05
1.46424385468e-06
5.99126436511e-05
1.01199925984e-06
5.98480980541e-05
6.87617927005e-07
5.98012510292e-05
4.58700292202e-07
5.97680337067e-05
2.9966797577e-07
5.97449704583e-05
1.90931008196e-07
5.97292801797e-05
1.17830427759e-07
5.97188292265e-05
6.96049751218e-08
5.97120273401e-05
3.84847263291e-08
5.97077197827e-05
1.8946855255e-08
5.97051107219e-05
7.13010300385e-09
5.97036101467e-05
3.52635427515e-10
5.97028213474e-05
-3.23653014335e-09
5.97024740665e-05
-4.84215459231e-09
5.97023885864e-05
-5.27379602773e-09
5.9702447663e-05
-5.05002887573e-09
5.97025771317e-05
-4.49733611808e-09
5.97027318427e-05
-3.81471197191e-09
5.97028864016e-05
-3.11810077743e-09
5.97030272725e-05
-2.47101750859e-09
5.97031486529e-05
-1.90389931713e-09
5.9703249449e-05
-1.42732563273e-09
5.97033323982e-05
-1.04200756799e-09
5.97034005292e-05
-7.38689202035e-10
5.97034551587e-05
-5.0203360532e-10
5.97034939822e-05
-3.2088649499e-10
5.97035151466e-05
-1.87953993994e-10
5.97035119043e-05
-8.67575153421e-11
5.97035025069e-05
-1.21043263091e-11
5.97034924941e-05
3.32543314603e-11
5.97034826957e-05
6.30336425011e-11
5.97034715203e-05
8.47840212001e-11
5.97034575227e-05
1.0226919656e-10
5.97034404658e-05
1.16868569269e-10
5.97034201771e-05
1.29995293096e-10
5.97033963715e-05
1.4265874816e-10
5.97033716527e-05
1.55478722122e-10
5.97033451949e-05
1.68428343386e-10
5.97033175128e-05
1.81405170378e-10
5.97032895264e-05
1.93777722494e-10
5.97032624651e-05
2.0426704433e-10
5.97032380307e-05
2.10931366508e-10
5.97032184295e-05
2.11057758756e-10
5.97032059101e-05
2.01048186813e-10
5.97032004433e-05
1.76700275736e-10
5.97031880613e-05
1.35220072862e-10
5.97031905297e-05
4.20422545159e-11
5.97032043542e-05
-1.14402034872e-10
5.97033423448e-05
-4.46828079485e-10
5.97035966408e-05
-9.38984587525e-10
5.97039299285e-05
-1.70669185666e-09
5.9704437111e-05
-2.87147634046e-09
5.97052034493e-05
-4.63800296158e-09
5.97063410081e-05
-7.33667317461e-09
5.97080135502e-05
-1.14790477888e-08
5.97104587061e-05
-1.78636435093e-08
5.97140211411e-05
-2.77428493258e-08
5.97191963456e-05
-4.3097792738e-08
5.97266808097e-05
-6.70820996915e-08
5.97374097056e-05
-1.04739242629e-07
5.97524897949e-05
-1.64124537177e-07
5.97728346996e-05
-2.5816922103e-07
5.97979598558e-05
-4.07531009666e-07
5.98228068545e-05
-6.44586769159e-07
5.98304407396e-05
-1.01803633306e-06
5.97781751336e-05
-1.59445258512e-06
5.95758485124e-05
-2.44858969677e-06
5.90598257163e-05
-3.63455019127e-06
-5.07195393612e-06
5.80573591868e-05
5.14373053686e-05
2.75268425866e-06
5.42658207916e-05
6.98138934732e-06
5.72496441408e-05
9.1318284833e-06
5.97900294839e-05
9.52530287164e-06
6.17201310329e-05
8.80247083614e-06
6.30883066868e-05
7.5319704176e-06
6.40167199077e-05
6.1098493439e-06
6.46292372673e-05
4.76539180111e-06
6.50257982359e-05
3.60554801679e-06
6.52790614433e-05
2.66152387636e-06
6.54389376509e-05
1.92378273807e-06
6.55386259864e-05
1.36455536978e-06
6.55998243272e-05
9.50800741867e-07
6.56365855492e-05
6.50856569832e-07
6.5657968503e-05
4.37317334646e-07
6.56697935598e-05
2.87843104737e-07
6.56757849429e-05
1.84939995971e-07
6.56783099409e-05
1.15305922316e-07
6.56788577917e-05
6.90576433613e-08
6.56783505943e-05
3.89923869742e-08
6.56773477135e-05
1.99501121145e-08
6.56761830654e-05
8.29507009895e-09
6.56750416204e-05
1.49440522686e-09
6.56740088039e-05
-2.20334152571e-09
6.5673123225e-05
-3.95617658856e-09
6.56723901329e-05
-4.54035525259e-09
6.56717997639e-05
-4.45944406003e-09
6.56713350545e-05
-4.03257082369e-09
6.56709767169e-05
-3.45642834224e-09
6.56707060746e-05
-2.84753198101e-09
6.56705060181e-05
-2.27098141994e-09
6.56703615519e-05
-1.75937376405e-09
6.56702598339e-05
-1.32547686868e-09
6.56701884193e-05
-9.70414872971e-10
6.56701373362e-05
-6.87405496221e-10
6.5670101318e-05
-4.65807227196e-10
6.56700747622e-05
-2.9412419458e-10
6.56700520891e-05
-1.65101548943e-10
6.5670039781e-05
-7.43494857707e-11
6.5670043849e-05
-1.62025653327e-11
6.56700418891e-05
3.50434486364e-11
6.56700334451e-05
7.12007709311e-11
6.56700222354e-05
9.5657090455e-11
6.56700094307e-05
1.14717843219e-10
6.56699949251e-05
1.31027990853e-10
6.56699783795e-05
1.46204714606e-10
6.56699594546e-05
1.61224209417e-10
6.56699381653e-05
1.76363355648e-10
6.5669916334e-05
1.8983987109e-10
6.56698933202e-05
2.04037322024e-10
6.56698690313e-05
2.17753672437e-10
6.56698440648e-05
2.28999784833e-10
6.56698193243e-05
2.3551606149e-10
6.56697961266e-05
2.34154392864e-10
6.56697766145e-05
2.2050357154e-10
6.56697650044e-05
1.88325836178e-10
6.56697703439e-05
1.29973082201e-10
6.56697687994e-05
4.36687482614e-11
6.56698143662e-05
-1.60016827188e-10
6.56698763998e-05
-5.09100976808e-10
6.56699785818e-05
-1.04158750036e-09
6.56701303617e-05
-1.85895146576e-09
6.56703428613e-05
-3.08435429999e-09
6.56706290383e-05
-4.92445275935e-09
6.56709949895e-05
-7.70286880775e-09
6.56714321682e-05
-1.19164768366e-08
6.56719014869e-05
-1.83332316956e-08
6.56723020677e-05
-2.81436628182e-08
6.56724131795e-05
-4.32090420973e-08
6.56717826187e-05
-6.64515179962e-08
6.56695143804e-05
-1.02470778784e-07
6.56637974687e-05
-1.5840724872e-07
6.56509805205e-05
-2.45351807055e-07
6.56237270147e-05
-3.80277016454e-07
6.5567474593e-05
-5.88333900163e-07
6.54541465023e-05
-9.04707826538e-07
6.5232835903e-05
-1.37314172206e-06
6.48200146968e-05
-2.03576823331e-06
6.4096680436e-05
-2.9112158777e-06
-3.93681852462e-06
6.2961544942e-05
5.10850424961e-05
1.66764146449e-06
5.36118453129e-05
4.45458599298e-06
5.66873184369e-05
6.05635489576e-06
5.96894497363e-05
6.52317113547e-06
6.22997308791e-05
6.19218928823e-06
6.44136908646e-05
5.41801007996e-06
6.60471812821e-05
4.47635865e-06
6.72686001054e-05
3.54397278307e-06
6.81598557006e-05
2.71429228615e-06
6.87976836099e-05
2.02369584271e-06
6.92466089213e-05
1.47485726817e-06
6.95577429365e-05
1.05342114958e-06
6.97700938732e-05
7.38449596881e-07
6.9912685828e-05
5.08264487797e-07
7.00067072268e-05
3.43295972258e-07
7.00673869272e-05
2.27163642646e-07
7.01055194238e-05
1.4680791316e-07
7.01286553038e-05
9.21705520892e-08
7.01420062407e-05
5.57072161593e-08
7.01491195563e-05
3.18795139858e-08
7.01523737337e-05
1.66963018077e-08
7.01533391759e-05
7.32996507583e-09
7.01530305247e-05
1.80342260611e-09
7.01520788912e-05
-1.25129431259e-09
7.01508728191e-05
-2.74969098306e-09
7.0149635391e-05
-3.30260439172e-09
7.0148487108e-05
-3.31099879251e-09
7.01474843488e-05
-3.02980749759e-09
7.01466451344e-05
-2.61729457042e-09
7.01459656947e-05
-2.16816654103e-09
7.01454308265e-05
-1.73612129226e-09
7.01450202054e-05
-1.34867760603e-09
7.01447121796e-05
-1.0173080057e-09
7.01444858008e-05
-7.43855391976e-10
7.01443229146e-05
-5.24325371448e-10
7.01442090162e-05
-3.51707743847e-10
7.01441336984e-05
-2.18603139152e-10
7.014408804e-05
-1.19274350868e-10
7.01440586329e-05
-4.48766196436e-11
7.01440283106e-05
1.40309808636e-11
7.01440130328e-05
5.00854401858e-11
7.01440045474e-05
7.93561639148e-11
7.01439974366e-05
1.0240663885e-10
7.01439902014e-05
1.21611886789e-10
7.01439820679e-05
1.38858973666e-10
7.0143972608e-05
1.55373710153e-10
7.01439616723e-05
1.71837956807e-10
7.0143949196e-05
1.88480461694e-10
7.01439336351e-05
2.05036715545e-10
7.01439160726e-05
2.21260496329e-10
7.01438973699e-05
2.36158639e-10
7.01438780944e-05
2.48037583144e-10
7.01438589327e-05
2.5449974822e-10
7.01438406485e-05
2.52300251585e-10
7.01438237538e-05
2.37311700089e-10
7.01438074163e-05
2.04664952744e-10
7.01437880844e-05
1.49370251848e-10
7.01437740323e-05
5.77448475959e-11
7.01437424448e-05
-1.28555806055e-10
7.01437311989e-05
-4.98165435014e-10
7.0143713919e-05
-1.02473395397e-09
7.01436647557e-05
-1.81017541346e-09
7.01435516454e-05
-2.97151193494e-09
7.01433157583e-05
-4.6887714142e-09
7.01428501039e-05
-7.23743402743e-09
7.01419687838e-05
-1.10354460656e-08
7.01403535538e-05
-1.67183118967e-08
7.01374602567e-05
-2.525059478e-08
7.01323678517e-05
-3.81167261501e-08
7.01235300973e-05
-5.76136636283e-08
7.01083814922e-05
-8.73218805702e-08
7.00825622593e-05
-1.32587641682e-07
7.00386833187e-05
-2.01472455497e-07
6.9964280571e-05
-3.05873807518e-07
6.98385440144e-05
-4.62596813141e-07
6.96275660409e-05
-6.9372934106e-07
6.92789084579e-05
-1.02448389251e-06
6.87187640246e-05
-1.47562365406e-06
6.78577152363e-05
-2.050167078e-06
-2.7067521801e-06
6.66276489629e-05
5.0880413418e-05
7.87227741795e-07
5.31704672917e-05
2.16453158675e-06
5.62177523684e-05
3.00906935963e-06
5.94382737565e-05
3.30264931603e-06
6.24449735023e-05
3.18548914592e-06
6.50382532924e-05
2.82472995143e-06
6.71548565807e-05
2.35975509822e-06
6.88135338789e-05
1.88529529078e-06
7.00731022772e-05
1.4547237302e-06
7.10055385991e-05
1.09125935128e-06
7.16810437268e-05
7.99351926813e-07
7.21610735318e-05
5.73391097602e-07
7.24960789095e-05
4.03444000882e-07
7.27257272822e-05
2.78616013592e-07
7.28802404195e-05
1.88782921119e-07
7.29820843712e-05
1.25319980633e-07
7.30476228225e-05
8.12699074099e-08
7.30885639882e-05
5.12298970125e-08
7.3113148773e-05
3.11229175386e-08
7.31270864811e-05
1.79422214719e-08
7.31342700128e-05
9.51312957753e-09
7.31373104266e-05
4.2899096432e-09
7.31379252563e-05
1.18899721669e-09
7.31372145551e-05
-5.40150982134e-10
7.31358688256e-05
-1.40355239513e-09
7.31343039394e-05
-1.73743353923e-09
7.31327573208e-05
-1.76426697367e-09
7.31313531706e-05
-1.62568545795e-09
7.31301457394e-05
-1.40995075557e-09
7.31291477505e-05
-1.17023981466e-09
7.31283488399e-05
-9.37196316156e-10
7.31277266263e-05
-7.26364746002e-10
7.31272541098e-05
-5.44636223559e-10
7.31269039279e-05
-3.93501588171e-10
7.31266509359e-05
-2.71160076704e-10
7.31264734311e-05
-1.74015342149e-10
7.31263528992e-05
-9.78718979745e-11
7.31262719348e-05
-3.81566995078e-11
7.31262180155e-05
9.06675411337e-12
7.31261903863e-05
4.15126474611e-11
7.31261720701e-05
6.81099406682e-11
7.31261612641e-05
8.97959293589e-11
7.31261548259e-05
1.08476487305e-10
7.31261504012e-05
1.25718064036e-10
7.31261463954e-05
1.42602121592e-10
7.3126141748e-05
1.59773693799e-10
7.31261357926e-05
1.77515429954e-10
7.3126128183e-05
1.95772790868e-10
7.31261187612e-05
2.14124502835e-10
7.31261075897e-05
2.32111943486e-10
7.3126094765e-05
2.48706850027e-10
7.31260803538e-05
2.62222602661e-10
7.31260643614e-05
2.70293197229e-10
7.31260467419e-05
2.69750148081e-10
7.31260274943e-05
2.56479008562e-10
7.31260068807e-05
2.25307783345e-10
7.31259859147e-05
1.70373488618e-10
7.3125953436e-05
9.01489608614e-11
7.31258997085e-05
-7.50482335241e-11
7.31258084926e-05
-4.07291565505e-10
7.31256620585e-05
-8.78670275417e-10
7.31254144956e-05
-1.56292282644e-09
7.31249931282e-05
-2.55037135997e-09
7.31242756227e-05
-3.97140680905e-09
7.3123058116e-05
-6.02007882747e-09
7.3121005984e-05
-8.98360620918e-09
7.31175718643e-05
-1.32845701479e-08
7.31118505148e-05
-1.95294835156e-08
7.31023602284e-05
-2.8626420196e-08
7.30867042585e-05
-4.1957527184e-08
7.30610614395e-05
-6.16788033801e-08
7.30192250467e-05
-9.07508841761e-08
7.29512433788e-05
-1.33490348154e-07
7.28413977302e-05
-1.96027705171e-07
7.26653637414e-05
-2.86562360177e-07
7.23867473859e-05
-4.15112459535e-07
7.19541444495e-05
-5.91880715791e-07
7.13016216753e-05
-8.23100773486e-07
7.03566368553e-05
-1.10518217954e-06
-1.41521847758e-06
6.90651032138e-05
5.0787172868e-05
5.45723373821e-11
5.2951651148e-05
5.27939029195e-11
5.59606914308e-05
2.86314235517e-11
5.9263326283e-05
1.40421692334e-11
6.24488123704e-05
2.67187384094e-12
6.52735480553e-05
-6.06617914704e-12
6.76333146696e-05
-1.17835064587e-11
6.95186242417e-05
-1.44948750334e-11
7.09733624405e-05
-1.46643777632e-11
7.20646344899e-05
-1.29168310731e-11
7.2863996067e-05
-9.90917898351e-12
7.34373932026e-05
-6.30767222468e-12
7.38408397656e-05
-2.76950310837e-12
7.41194556984e-05
2.09281936602e-14
7.43082370713e-05
1.68913820069e-12
7.44335558608e-05
1.52495074526e-12
7.45148267946e-05
-5.67076691922e-13
7.45660616392e-05
-4.45724666879e-12
7.45971945113e-05
-9.50734827378e-12
7.46151518774e-05
-1.4761005969e-11
7.46246844026e-05
-1.90405727491e-11
7.46289958178e-05
-2.11218764938e-11
7.46302065099e-05
-2.12562732987e-11
7.46296869494e-05
-2.01333454221e-11
7.46283020325e-05
-1.82458508666e-11
7.46265805387e-05
-1.56967558648e-11
7.46248288693e-05
-1.25206685483e-11
7.46232118348e-05
-8.69122432536e-12
7.4621805871e-05
-4.06083864054e-12
7.4620634162e-05
1.43822341956e-12
7.46196903561e-05
6.66163127625e-12
7.46189514323e-05
1.26844198424e-11
7.46183878362e-05
1.91126865505e-11
7.46179686489e-05
2.58308549926e-11
7.46176647304e-05
3.29073369843e-11
7.46174503359e-05
4.05626698775e-11
7.46173036968e-05
4.8969176437e-11
7.4617207592e-05
5.80843319855e-11
7.46171488889e-05
6.77504107848e-11
7.46171128063e-05
7.73960875986e-11
7.46170928799e-05
8.77040825173e-11
7.46170831865e-05
9.91035219069e-11
7.46170795309e-05
1.11771662362e-10
7.46170790604e-05
1.25902438743e-10
7.46170798535e-05
1.41587755135e-10
7.46170806455e-05
1.58768331196e-10
7.46170806593e-05
1.77245634809e-10
7.46170794439e-05
1.96685239184e-10
7.46170766854e-05
2.16562429706e-10
7.46170722671e-05
2.36232067401e-10
7.46170660965e-05
2.54625119881e-10
7.46170579529e-05
2.70139892508e-10
7.46170474242e-05
2.80603886171e-10
7.46170338171e-05
2.8320030666e-10
7.4617015913e-05
2.7434518228e-10
7.46169916157e-05
2.49628269368e-10
7.46169579478e-05
2.04000019117e-10
7.46169140439e-05
1.33889742025e-10
7.46168337969e-05
4.89836527443e-12
7.46166765538e-05
-2.50432807455e-10
7.4616434652e-05
-6.37098440946e-10
7.46160359663e-05
-1.1644429348e-09
7.46153814487e-05
-1.89595369086e-09
7.46143060908e-05
-2.89614094731e-09
7.46125425708e-05
-4.25678157354e-09
7.46096641967e-05
-6.1055901882e-09
7.46049862179e-05
-8.60695525019e-09
7.45973830108e-05
-1.19264838294e-08
7.45850307865e-05
-1.62741690697e-08
7.45650206635e-05
-2.19471639397e-08
7.45328777963e-05
-2.95355697979e-08
7.44814272557e-05
-3.93000145604e-08
7.43994433525e-05
-5.15060381275e-08
7.42697279534e-05
-6.63118381842e-08
7.40665943891e-05
-8.34283387367e-08
7.37531310494e-05
-1.01648609155e-07
7.32794021668e-05
-1.18151582528e-07
7.25840058925e-05
-1.27704399668e-07
7.16018981634e-05
-1.23074367152e-07
-9.56264098293e-08
7.02823061632e-05
5.07871718316e-05
-7.87117546941e-07
5.29516503003e-05