/*--------------------------------*- C++ -*----------------------------------*\
| =========                 |                                                 |
| \\      /  F ield         | OpenFOAM: The Open Source CFD Toolbox           |
|  \\    /   O peration     | Version:  2106                                  |
|   \\  /    A nd           | Website:  www.openfoam.com                      |
|    \\/     M anipulation  |                                                 |
\*---------------------------------------------------------------------------*/
FoamFile
{
    version     2.0;
    format      ascii;
    arch        "LSB;label=32;scalar=64";
    class       volScalarField;
    location    "0.455";
    object      p;
}
// * * * * * * * * * * * * * * * * * * * * * * * * * * * * * * * * * * * * * //

dimensions      [0 2 -2 0 0 0 0];

internalField   nonuniform List<scalar> 
11200
(
150.105822506
147.177220867
146.063370916
145.53604108
145.168713106
144.873936636
144.612294774
144.363758142
144.119241357
143.87417466
143.625860799
143.372544977
143.112995134
142.846275709
142.571619976
142.288354757
141.995854533
141.693513567
141.380733101
141.056925128
140.721465623
140.373705296
140.012985686
139.63863896
139.249979573
138.846306322
138.426903056
137.991039259
137.537970805
137.066940651
136.577179514
136.067906478
135.538328869
134.987643144
134.415034773
133.819679585
133.200743746
132.557383718
131.888747056
131.193972382
130.472190009
129.722522158
128.944083065
128.135979089
127.297308503
126.427161271
125.524618616
124.588752242
123.618623525
122.613281932
121.571763066
120.493085766
119.376248255
118.220223158
117.023951265
115.786333626
114.506221634
113.18240478
111.813594796
110.398406026
108.935330073
107.422704284
105.8586712
104.241130586
102.567672733
100.83549151
99.0412758429
97.1810656153
95.2500567598
93.2423346804
91.150510252
88.9652239066
86.6742766968
84.261482006
81.7047536005
78.9724307811
76.016912997
72.7656224656
69.06482733
64.3015086602
148.312780459
146.954606619
146.163636109
145.663623214
145.272636731
144.948756076
144.664236784
144.399636214
144.144149738
143.891628839
143.638246084
143.381487773
143.119616812
142.851356765
142.57570735
142.291834011
141.99899967
141.69652175
141.383741816
141.059997955
140.724639853
140.376991766
140.016409854
139.642225992
139.25374427
138.850257775
138.431047501
137.995381084
137.542513097
137.071685482
136.582127882
136.073057961
135.54368122
134.993197564
134.420794615
133.825648149
133.206924153
132.563778964
131.895360071
131.20080622
130.47924785
129.729807411
128.951599502
128.143730924
127.305300528
126.435398982
125.533108433
124.597501782
123.627641907
122.622580207
121.581354701
120.502987211
119.386479674
118.230809274
117.034922448
115.797727312
114.518084016
113.194792915
111.82657924
110.412074253
108.949791091
107.43809483
105.875161717
104.258928582
102.587027877
100.856718987
99.0647856365
97.2073901027
95.2798930143
93.2766098422
91.1904718261
89.0125225386
86.7312144461
84.3314113268
81.7927176841
79.0866249061
76.1723347175
72.9920134831
69.4428727926
65.3300650038
147.317590386
146.663390306
146.111035579
145.673419273
145.301797232
144.979697389
144.690599388
144.420367205
144.159905699
143.90342589
143.647042651
143.388074174
143.124608373
142.855218344
142.578783189
142.294374573
142.001183163
141.698470505
141.385538441
141.061709956
140.72632281
140.378737212
140.018209068
139.644084739
139.255672255
138.852262146
138.433133074
137.99755156
137.544771862
137.074036159
136.584575013
136.075608051
135.546344613
134.995977216
134.423688569
133.828656802
133.210048824
132.567021641
131.898723493
131.204293968
130.482864413
129.733558208
128.955491102
128.147771181
127.30949886
126.439766706
125.537659119
124.602251889
123.63261138
122.627793323
121.586841047
120.508782855
119.392628573
118.237365034
117.041950427
115.805307304
114.526313636
113.203791535
111.836493246
110.423083193
108.962114719
107.452001244
105.890978568
104.277078449
102.608063341
100.881338751
99.0938627968
97.2420366613
95.3215463204
93.3271534325
91.2524086076
89.0892490702
86.8275799374
84.4544852519
81.9532440564
79.3019964994
76.4727698165
73.4339502127
70.1495624065
66.5965894124
146.767829552
146.40444858
146.004551533
145.635562429
145.297947224
144.989846239
144.704484192
144.433781282
144.171409997
143.912743255
143.654362887
143.393737253
143.128966495
142.858583421
142.58141216
142.296470496
142.002902423
141.699931846
141.386831652
141.062901799
140.727451197
140.379789487
140.01927543
139.645185923
139.256810384
138.853441201
138.434356771
137.998822353
137.546091046
137.07540399
136.585990755
136.077069138
135.54784664
134.997521656
134.425284029
133.830308726
133.211763476
132.568806003
131.900583554
131.206236132
130.484895939
129.735687386
128.957727693
128.150126792
127.311987412
126.442405029
125.540467548
124.605255153
123.635839576
122.631283108
121.590636909
120.512938872
119.397210447
118.242452777
117.047641721
115.811721677
114.533597853
113.212125492
111.846097895
110.43422968
108.975140103
107.467331129
105.909141915
104.298712918
102.633942892
100.91243295
99.1314076172
97.287614607
95.3772008963
93.3955567632
91.3371254153
89.1951775104
86.9614813784
84.6259951296
82.1766299376
79.5992880425
76.8792249403
74.0067346183
70.9854172778
67.8524542391
146.433782077
146.201986976
145.900575529
145.589599723
145.284761568
144.992739466
144.713765006
144.44463981
144.181680131
143.921595718
143.661626047
143.399533623
143.133525927
142.862153989
142.584221335
142.29871128
142.004731453
141.701472759
141.388179849
141.064129991
140.728618152
140.380947882
140.020422823
139.646332485
139.257979845
138.854648641
138.435612004
138.000132766
137.547462652
137.076842271
136.587501222
136.078658154
135.549520942
134.999286581
134.427141043
133.832260901
133.213811555
132.570950876
131.902829417
131.208587676
130.48736034
129.738274185
128.960448894
128.152997154
127.315024954
126.445631582
125.543909596
124.608944789
123.639815707
122.63559287
121.595337978
120.518101544
119.402920372
118.248814308
117.05478201
115.81979494
114.542791273
113.222666793
111.858264014
110.448364154
108.991664663
107.486754129
105.932095068
104.325992647
102.666553144
100.951634493
99.1787890912
97.3451949637
95.4475726097
93.4820879604
91.4442443975
89.3287774386
87.1295785659
84.8397289671
82.4518079664
79.9588066762
77.3565291604
74.6494177041
71.8588330665
69.0354719252
146.230390123
146.054488458
145.813294679
145.545970219
145.268784689
144.99214778
144.720459269
144.453958485
144.191193747
143.930184859
143.668896825
143.405462551
143.138256612
142.8658883
142.587164942
142.301049125
142.006619011
141.703035296
141.389515193
141.065312791
140.729704534
140.381978465
140.02142522
139.647335184
139.258997904
138.855692665
138.436689909
138.001250395
137.548624303
137.078051089
136.588759354
136.07996703
135.550881369
135.000699362
134.428607826
133.833784155
133.215396867
132.5726056
131.904561571
131.210409156
130.489283916
129.740313388
128.962619376
128.155317034
127.317515758
126.448319384
125.546826108
124.61212861
123.6433139
122.639463032
121.599649661
120.522938978
119.408385762
118.255031776
117.061902757
115.828004282
114.552319448
113.233795515
111.871341356
110.463807383
109.0099787
107.508562887
105.958176404
104.357302835
102.704274854
100.997242731
99.2341355934
97.4126198547
95.5300556095
93.5834571669
91.5694684341
89.4843777893
87.3242188317
85.0850501039
82.7635866903
80.3584770893
77.8727890692
75.3186767025
72.7230878429
70.1331194461
146.107273879
145.951666668
145.74536591
145.508805292
145.253331867
144.990054263
144.725442887
144.461935907
144.199803958
143.938219088
143.675847189
143.411211746
143.142883065
142.869552765
142.590048879
142.303324093
142.008433652
141.704511782
141.390750392
141.066381468
140.730663062
140.382868701
140.022279612
139.648178385
139.259846259
138.856557516
138.437579718
138.002171434
137.549581331
137.079048001
136.589799681
136.081054297
135.552019464
135.001892787
134.429862342
133.835106399
133.21679384
132.574085143
131.906132395
131.212079177
130.491060996
129.742209234
128.964650041
128.157503071
127.319882348
126.450896964
125.549651514
124.615246508
123.646778524
122.643340004
121.604018669
120.52789709
119.414051278
118.261548884
117.069446812
115.836787744
114.562595567
113.245877907
111.885607579
110.480724838
109.030129007
107.532660194
105.987089075
104.392102972
102.74628972
101.048120158
99.295930179
97.4879061194
95.6220783304
93.6963324271
91.7084541486
89.6562373729
87.537702525
85.3515167171
83.0977486385
80.7791559121
78.4032873384
75.9857410929
73.5533920551
71.1455958383
146.033194732
145.883185061
145.696430595
145.480326912
145.240622908
144.987803897
144.72916905
144.468432968
144.207068073
143.945147863
143.681931409
143.416295298
143.146999113
142.872821789
142.592620025
142.305344201
142.010032969
141.70579902
141.391812737
141.067286845
140.731463284
140.383602694
140.022976202
139.648858375
139.260525554
138.857247038
138.43828759
138.002903693
137.550342745
137.07984252
136.590630928
136.081925769
135.552934916
135.002856199
134.430877776
133.836178415
133.217927803
132.575286873
131.907408714
131.213439834
130.492521969
129.743788593
128.966366513
128.159378785
127.321944228
126.453177777
125.552191182
124.61809358
123.649991966
122.646991572
121.608196072
120.532706739
119.419622239
118.268038003
117.077044772
115.845728144
114.573165453
113.258422559
111.900552881
110.498587255
109.051534303
107.558375138
106.018055181
104.429477331
102.791497036
101.102918739
99.3624971745
97.5689466808
95.7209658933
93.8172898483
91.8567861157
89.8386247025
87.7625595247
85.6294025578
83.4417671191
81.2051865746
78.9296970538
76.631902872
74.3364830592
72.0754441723
145.990918869
145.841471665
145.665057362
145.461321075
145.231790793
144.98608504
144.731727724
144.473091855
144.212387265
143.950294832
143.686498596
143.420140721
143.150129816
142.875317403
142.594586943
142.306890432
142.011255962
141.706780996
141.392620134
141.067971724
140.732065547
140.384152392
140.023495678
139.649364899
139.261028978
138.857757116
138.438811017
138.003445406
137.550906769
137.080432299
136.591249706
136.082576751
135.553621493
135.003582196
134.431647532
133.836997042
133.218801547
132.576223757
131.908419173
131.214536411
130.493715947
129.745094892
128.967805108
128.160973952
127.323725283
126.455180231
125.554458162
124.620677549
123.652956707
122.650414512
121.612170846
120.537347054
119.42506633
118.274453888
117.084636794
115.854743466
114.583903632
113.271250697
111.91591392
110.517025716
109.073714009
107.585105366
106.05032429
104.46849355
102.838740002
101.160203272
99.432052872
97.6535177891
95.8239351101
93.9428319899
92.0100534356
90.0259661044
87.9917647275
85.9099403838
83.7849393247
81.6240568064
79.4385427751
77.2448081622
75.0648963946
72.9249849396
145.971642912
145.82176553
145.649803907
145.45187045
145.227311597
144.985195251
144.733062867
144.475556523
144.215231636
143.953072234
143.68898301
143.422248255
143.151858514
142.876706493
142.595691724
142.307768165
142.011958864
141.707353444
141.39309817
141.06838372
140.732433347
140.384492525
140.023820418
139.649683217
139.261348416
138.858082515
138.439146236
138.003793639
137.551270816
137.080814852
136.591653434
136.083004611
135.554076729
135.004068596
134.432169641
133.837560304
133.219412588
132.576890558
131.909150844
131.215343467
130.494613327
129.746099891
128.968938246
128.16226007
127.325194526
126.456869253
125.556411527
124.622949429
123.655612909
122.653534969
121.615852611
120.541707922
119.430249224
118.280632248
117.092021628
115.863591576
114.594526583
113.284026167
111.931302838
110.535587287
109.096127863
107.612197464
106.083100102
104.508177782
102.886824471
101.218505978
99.5027896754
97.7393892214
95.928229895
94.0695493729
92.1640396241
90.2130697077
88.2189791595
86.1855211056
84.1184031522
82.0259702059
79.9199454976
77.8160823586
75.7340700315
73.6958311159
145.971645964
145.821782059
145.649831376
145.451907147
145.227356742
144.985247989
144.73312226
144.475621721
144.215301924
143.95314703
143.689061854
143.422330819
143.151944548
142.876795819
142.595784227
142.307863786
142.012057575
141.707455274
141.393203214
141.068492157
140.732545449
140.384608651
140.023941003
139.649808794
139.261479616
138.858220046
138.439290961
138.003946708
137.551433615
137.080989053
136.591841057
136.083208135
135.554299151
135.004313519
134.432441438
133.837864251
133.219755047
132.577279272
131.909595434
131.215855931
130.495207697
129.746793202
128.969751188
128.163217825
127.326327672
126.458214952
125.558014953
124.624865486
123.657908308
122.656290692
121.619166934
120.545700094
119.435063902
118.286444996
117.099045285
115.872084435
114.604802616
113.296463387
111.946362897
110.553830605
109.118233397
107.638988974
106.11557588
104.547548302
102.934556269
101.276372735
99.5729308147
97.8243801501
96.0311662002
94.1941388163
92.3147252396
90.3952283035
88.4387623723
86.4499478906
84.4353001761
82.4037206701
80.3669952999
78.3401407787
76.3410587943
74.3888412517
145.99092807
145.841521613
145.665140367
145.461431903
145.231927059
144.986244018
144.731906537
144.473287968
144.21259855
143.950519553
143.686735397
143.420388601
143.150388038
142.875585465
142.594864513
142.307177317
142.011552091
141.707086463
141.392935233
141.068296986
140.732401775
140.384500625
140.023857164
139.649741281
139.261422114
138.858169096
138.439244392
138.003903524
137.551393676
137.080953044
136.591810352
136.083184703
135.554285618
135.004313205
134.432458471
133.837903759
133.219823336
132.577384055
131.909746084
131.216063914
130.495486876
129.747160431
128.970226917
128.163826872
127.327100222
126.459187708
125.559232522
124.626382047
123.65978969
122.658616786
121.622034641
120.549226941
119.439392246
118.291747757
117.105532051
115.880008757
114.614473285
113.308253674
111.960724601
110.571308157
109.139490925
107.664826769
106.146959108
104.585639811
102.980754336
101.332358439
99.6407375161
97.9064777964
96.1304686595
94.314084691
92.4593036226
90.5688070529
88.6465708058
86.6978542338
84.7296487556
82.7511072183
80.7739026428
78.8124385425
76.8834307449
75.004318107
146.033210282
145.883269564
145.696570786
145.480513687
145.240852107
144.988070796
144.729468771
144.468761265
144.207421401
143.94552334
143.682326793
143.416708916
143.147429776
142.873268686
142.593082632
142.305822206
142.010526277
141.706307803
141.392337494
141.067828456
140.732023075
140.38418238
140.023577761
139.649484517
139.261179057
138.857931485
138.439007299
138.003664075
137.551150553
137.080706021
136.591560108
136.082932715
135.554034105
135.004065144
134.432217663
133.837674986
133.219612538
132.577198605
131.909594975
131.21595808
130.495439664
129.747188006
128.970348947
128.16406721
127.327487883
126.459758024
125.560028451
124.627455758
123.661204499
122.660449585
121.624378626
120.552195143
119.443121594
118.296404091
117.111316473
115.88716483
114.623295451
113.319099607
111.97402374
110.58758226
109.15936522
107.689059824
106.176465687
104.621522551
103.024344543
101.385246711
99.7047844654
97.9838155859
96.2236600908
94.4261330071
92.5936891259
90.72958965
88.8381428305
86.9249505039
84.9972311358
83.0641563976
81.1371668582
79.2302076658
77.3594097983
75.5416859044
146.107296173
145.951787892
145.745566363
145.509071378
145.253657342
144.990432182
144.72586627
144.462398767
144.200301335
143.938746979
143.676402497
143.411792169
143.143486966
142.870179033
142.590696824
142.30399331
142.00912403
141.705223555
141.391484232
141.067138531
140.731445091
140.383678046
140.023119137
139.64905154
139.260756972
138.857510678
138.438581334
138.003228879
137.55070384
137.080246898
136.591088744
136.08245015
135.553542157
135.003566388
134.4317155
133.837173759
133.219117673
132.576716813
131.909134637
131.215529381
130.4950551
129.746862712
128.970101306
128.163919553
127.327467364
126.459897685
125.560368495
124.628045045
123.662102322
122.661727842
121.62612468
120.554514625
119.44614267
118.300281815
117.116238381
115.893358707
114.631035703
113.328719384
111.985925785
110.602249957
109.177383038
107.711128839
106.203426124
104.654374917
103.064267387
101.433642071
99.7633341601
98.0545274273
96.3088333295
94.5283935124
92.7160056606
90.8752693462
89.0107658109
87.12826908
85.2350083078
83.3399668675
81.4542239346
79.5913478152
77.7673477141
75.9996313096
146.230419835
146.054650106
145.813560583
145.546321365
145.26921224
144.992642272
144.721011499
144.454560698
144.191839607
143.930869288
143.669615906
143.406213391
143.139037175
142.866697235
142.588001408
142.301912635
142.007509411
141.703952781
141.390460391
141.066286796
140.730708895
140.383015359
140.022499397
139.648452553
139.260162991
138.856911007
138.4379687
138.002598656
137.550053287
137.079574707
136.590394701
136.081734922
135.552807192
135.00281388
134.430948448
133.836395999
133.218334085
132.575933325
131.908358612
131.214769842
130.494323183
129.746172053
128.969468563
128.163365023
127.327015772
126.459579102
125.56021948
124.628109956
123.662435071
122.662393576
121.627202605
120.556100635
119.448352767
118.303256334
117.120146824
115.898406449
114.637471079
113.336841739
111.99609664
110.614905117
109.193045026
107.730422996
106.227100227
104.683323109
103.099558585
101.476535646
99.8152975794
98.1172658676
96.3843152982
94.618858809
92.8239511334
91.0034092612
89.161956597
87.3053837516
85.4407519155
83.5766544256
81.7236054405
79.8946848494
78.1059225092
76.3759910284
146.433819871
146.202193891
145.900913322
145.590042863
145.285297937
144.993356671
144.714451478
144.445386038
144.182478484
143.922440141
143.662511904
143.40045753
143.134485553
142.863147857
142.585248623
142.299771664
142.005824986
141.702599843
141.389341158
141.065326583
140.729851774
140.3822199
140.021735571
139.647699428
139.259404863
138.856137298
138.437172282
138.001774899
137.549199388
137.078689172
136.589477042
136.080785429
135.551826863
135.001804423
134.429912352
133.835336602
133.217255814
132.574841714
131.907260413
131.213673106
130.493237524
129.745109087
128.968442463
128.162393138
127.326119351
126.458784181
125.559557854
124.62762028
123.662164368
122.662398819
121.627552838
120.556879841
119.449662604
118.305219702
117.122912632
115.902154206
114.642417462
113.343247229
112.004274637
110.625232226
109.205973296
107.746494107
106.246960753
104.707740767
103.129440794
101.512950628
99.8594939287
98.1706872159
96.4486093035
94.6958778069
92.9157342824
91.1121361835
89.2898575406
87.4545953953
85.6131012743
83.7733693846
81.945021225
80.1402109766
78.3744538497
76.6676045099
146.767875335
146.404704336
146.004963632
145.636097857
145.298589881
144.990580327
144.705295668
144.434658947
144.172345022
143.913728719
143.655393558
143.394809365
143.130077541
142.859731985
142.582597765
142.297693516
142.004164073
141.701234324
141.388177718
141.064295241
140.728901242
140.381312055
140.020843602
139.64680317
139.258490507
138.855195336
138.436196352
138.00076092
137.548144858
137.07759264
136.588337857
136.079603569
135.550602766
135.000538923
134.428606717
133.833992741
133.215876551
132.573430939
131.905823186
131.212216096
130.491769394
129.743640076
128.966984911
128.160961992
127.324732706
126.457463991
125.558330816
124.626518816
123.661227706
122.661674683
121.627098542
120.556764699
119.449970551
118.306052014
117.124391854
115.904427773
114.645664857
113.347685745
112.010165033
110.63288746
109.215768079
107.75887582
106.262461723
104.726991792
103.153185378
101.542059388
99.8949788643
98.2137138671
96.5005021431
94.7581156858
92.9899302111
91.199992137
89.3930774797
87.5747379195
85.7513378409
83.9300945999
82.1193110797
80.3293687049
78.5734830625
76.8703075006
147.317648826
146.66370893
146.111531882
145.674052215
145.302546998
144.980544889
144.691528376
144.421365048
144.16096252
143.90453396
143.648196064
143.389268532
143.125840516
142.856486095
142.580085164
142.295710136
142.002552757
141.69987665
141.386985959
141.063205275
140.727866449
140.380299262
140.019824605
139.645762271
139.257416807
138.85408117
138.435036622
137.999552368
137.546885746
137.076282217
136.586976058
136.078190941
135.54914042
134.999028516
134.427050372
133.832392804
133.214234423
132.571749375
131.904105818
131.210467225
130.489993706
129.741844426
128.965178073
128.159154854
127.322938752
126.45569982
125.556616724
124.62487979
123.659693726
122.660281966
121.625891433
120.555797163
119.449307896
118.305773241
117.124592701
115.905223673
114.647192862
113.350111338
112.013687387
110.637745341
109.222247021
107.767316745
106.27327045
104.740649453
103.170259397
101.563214278
99.9209859299
98.2454582551
96.5389845571
94.8044504957
93.045329437
91.2657313409
89.470428785
87.664850972
85.8550152375
84.0473097372
82.2483956071
80.465832596
78.7067352715
76.9798004583
148.312886706
146.955071208
146.164325428
145.664484178
145.273646051
144.949892879
144.665483995
144.400980692
144.145581237
143.893139297
143.63982919
143.383138576
143.121331292
142.853131387
142.577538576
142.293717812
142.000930955
141.698493585
141.385748499
141.062047188
140.726729959
140.379147376
140.018647481
139.644546816
139.256153722
138.852764554
138.43366223
137.998114899
137.545381568
137.074709257
136.585332851
136.076476336
135.547353518
134.997168752
134.425117498
133.830387566
133.212160356
132.56960904
131.901901814
131.208203064
130.487674052
129.739474419
128.962763878
128.156704046
127.320460635
126.453205881
125.554120847
124.622399108
123.657249153
122.657898984
121.623600077
120.553634309
119.447317946
118.304009994
117.123120862
115.904122139
114.646557817
113.350057219
112.01435153
110.639292415
109.224873836
107.771257774
106.278803781
104.748103101
103.180017907
101.575725582
99.9367679102
98.2651029348
96.5631570961
94.8339047546
93.0808935195
91.3082917981
89.5209040864
87.7241479236
85.9239204693
84.1260885779
82.3361819335
80.5589634564
78.7892363838
76.997498416
150.105995389
147.177898094
146.064371079
145.537301677
145.170203702
144.875632498
144.614177248
144.365813618
144.121459912
143.876549241
143.628386735
143.375219713
143.115818102
142.849248324
142.574745672
142.291638959
141.999304495
141.697137739
141.384536125
141.06089232
140.725601052
140.378022265
140.017487079
139.643330171
139.254869419
138.851405641
138.432225057
137.996602603
137.543795873
137.073050371
136.583601031
136.074672007
135.545477153
134.995220901
134.423098714
133.828298123
133.209999335
132.567376548
131.899598615
131.205830227
130.485233031
129.736967286
128.960193431
128.154073905
127.317775342
126.450471142
125.55134366
124.619588106
123.654414852
122.655054378
121.620760543
120.550818556
119.444548925
118.30131558
117.120534433
115.90168367
114.644314865
113.348067295
112.01268385
110.638029938
109.224115693
107.771122185
106.279431497
104.749661344
103.182704668
101.579774015
99.9424509103
98.2727428446
96.5731468431
94.846668392
93.0969122809
91.3281156856
89.545167503
87.7535864749
85.9594186003
84.1691607378
82.3892334919
80.6244195152
78.8542589294
76.9543020536
56.9074346277
53.3552920458
50.9638477011
49.0064220776
47.3343706796
45.877519649
44.5918833717
43.4477557131
42.4234648601
41.5022653336
40.6707518022
39.9179200656
39.2345697962
38.6129036691
38.0462434161
37.5288209348
37.055619863
36.6222525675
36.2248624147
35.8600450095
35.5247833513
35.2163942786
34.9324837618
34.6709097952
34.4297510776
34.207280207
34.0019402488
33.8123244644
33.6371586075
33.4752859352
33.3256542723
33.1873047678
33.0593624038
32.9410276549
32.8315677614
32.7303083974
32.6366282478
32.5499550661
32.4697620433
32.3955629511
32.3269066418
32.2633722254
32.2045659108
32.1501182821
32.0996798499
32.0529259839
32.0096327169
31.9697937003
31.9330314323
31.8990391689
31.8675898396
31.8384386382
31.8114035355
31.7863262997
31.7630606705
31.7414853899
31.7214593783
31.7028480782
31.6855375801
31.6694248177
31.6544139295
31.6404105572
31.6273205343
31.6150642628
31.603568379
31.5927645009
31.5825932297
31.5729978183
31.5639278289
31.5553362679
31.5471787485
31.5394148311
31.5320070834
31.5249219168
31.5181283229
31.5115991998
31.5053094572
31.4992310238
31.4933431086
31.4876254826
31.4820590453
31.4766366495
31.471341039
31.4661600177
31.4610782642
31.4560799395
31.4511547793
31.4462972811
31.4415012682
31.4367792565
31.4321081784
31.4274708909
31.4228584381
31.4182658339
31.4136886128
31.4091229324
31.4045649076
31.400009685
31.3954517587
31.3908873471
31.3863143047
31.3817304404
31.3771327329
31.3725179599
31.3678826027
31.3632230842
31.3585359398
31.3538180244
31.3490668714
31.3442806167
31.3394573528
31.3345946269
31.3296893495
31.3247389515
31.3197410934
31.314695145
31.3096005321
31.3044568866
31.2992633016
31.2940189068
31.2887231638
31.2833763821
31.2779782827
31.2725219234
31.2669840606
31.2613129696
31.2557560964
31.2506648864
31.2455233388
31.2403286937
31.2351889214
31.2301827335
31.225364382
31.2207895007
31.2165175607
31.2126078717
31.2091132314
31.2060766986
31.2035043891
31.2013782147
31.1998466884
31.1985753377
31.1974922387
31.1959802086
31.1923805986
31.1824739369
31.1561692646
31.0917848082
30.9480353088
30.6543605836
30.1055311911
29.1687602216
27.7114683393
25.6409954104
22.9313773652
19.6387381154
15.8815966901
11.6280973774
6.60301818296
1.57034145555
60.088797553
56.035964629
53.3239703427
51.1716011486
49.3696376617
47.8196686548
46.4634797923
45.2638368588
44.1945665991
43.2360365426
42.372908849
41.59284011
40.8856781328
40.2429339441
39.6574186934
39.1229812567
38.6343138678
38.186804125
37.7764197138
37.3996170589
37.0532671104
36.7345952441
36.4411317163
36.1706708816
35.9212372862
35.6910566684
35.4785310977
35.2822171899
35.1008080282
34.9331170085
34.7780648159
34.6346675587
34.5020272823
34.3793233431
34.2658032375
34.1607743012
34.0635981849
33.9736874522
33.8905019349
33.8135438177
33.7423530151
33.6765029182
33.6155992266
33.5592801225
33.5072154446
33.4591017247
33.4146298297
33.3733885775
33.3352418052
33.2999235679
33.2672336154
33.2369810175
33.2089786501
33.1830487093
33.1590240883
33.1367464743
33.1160707563
33.0968670243
33.0790174801
33.0624064401
33.0469229339
33.03247587
33.018980965
33.0063575186
32.994529908
32.983427495
32.9729869281
32.963150448
32.9538641584
32.945079614
32.9367495327
32.9288319351
32.9212867738
32.9140805256
32.9071805029
32.9005556084
32.8941823542
32.8880308919
32.8820799186
32.8763099327
32.870698356
32.8652292074
32.8598772412
32.8546336376
32.8494881986
32.8444271243
32.8394410842
32.834520849
32.8296571954
32.8248394709
32.8200606632
32.8153158582
32.8105981714
32.8059017773
32.8012234364
32.7965593124
32.7919047122
32.7872547542
32.7826045801
32.7779503894
32.7732896213
32.7686201711
32.763939052
32.7592428586
32.7545275173
32.74978984
32.7450263729
32.7402341916
32.7354105633
32.7305533977
32.7256608905
32.7207300684
32.7157577514
32.7107410692
32.7056779521
32.7005677634
32.6954103682
32.6902060538
32.6849539921
32.6796546652
32.6743090273
32.6689203998
32.6634942433
32.6580380291
32.6525664427
32.6471011017
32.6416792307
32.6362367102
32.6307287531
32.6255315138
32.6204194514
32.6154702913
32.6107659093
32.6063679944
32.6023455115
32.5987720515
32.5957186743
32.5932441593
32.5913528584
32.5901364588
32.5895280854
32.589410269
32.5894916981
32.5889550974
32.5856184872
32.5742799696
32.5428621434
32.4664228808
32.2987103702
31.9628379287
31.3474611053
30.3167995428
28.7413791899
26.5383616557
23.693666012
20.2679141556
16.377622145
12.006201723
6.89220356858
1.7039141731
62.2962301004
58.3627730719
55.4956092
53.211663701
51.3096778911
49.6831730277
48.2671163795
47.0194930101
45.9108814256
44.9194213604
44.028217828
43.2238188427
42.4952703874
41.8334957273
41.2308695457
40.6809129808
40.1780692382
39.7175345464
39.2951274069
38.9071865012
38.5504884727
38.2221819853
37.9197340911
37.640886187
37.3836177128
37.1461152482
36.9267462656
36.724036519
36.5366512418
36.3633782935
36.2031148343
36.0548554553
35.9176820466
35.7907546929
35.6733027401
35.5646169655
35.4640436685
35.3709806312
35.2848734297
35.2052101986
35.1315166443
35.0633526678
35.0003101106
34.942010189
34.8881016317
34.8382598539
34.792193214
34.7495908646
34.7100525422
34.6734521122
34.6396171844
34.6083212556
34.5793580943
34.5525434328
34.5277072651
34.50469149
34.4833481672
34.4635397172
34.4451399667
34.4280357151
34.412108134
34.3972575549
34.3833954422
34.3704367344
34.3583047672
34.3469254926
34.3362325852
34.3261647273
34.3166661422
34.3076877181
34.2991789194
34.2910976091
34.2834030497
34.2760612445
34.2690353154
34.2622944673
34.2558143618
34.2495641712
34.2435194909
34.2376520227
34.2319468669
34.2263973232
34.2209812582
34.2156828505
34.2104899069
34.2053882279
34.2003638535
34.1954102382
34.1905190128
34.1856811248
34.1808884383
34.176132001
34.1714024992
34.1666944016
34.1620041753
34.1573265079
34.1526563508
34.1479895467
34.1433211274
34.1386470577
34.1339647304
34.1292718287
34.1245647447
34.1198399249
34.1150936077
34.1103226827
34.1055238648
34.1006943713
34.0958316249
34.0909333886
34.0859976792
34.0810214847
34.0760015696
34.0709354899
34.0658211796
34.0606585801
34.0554475815
34.0501887625
34.044881807
34.0395277892
34.0341287029
34.0286887773
34.0232154657
34.0177181088
34.0122139832
34.0067178678
34.0012341058
33.9958023195
33.9905097356
33.9852081858
33.9800449378
33.9750810293
33.9704454082
33.9661883921
33.9623795942
33.9591078847
33.956456649
33.9545050258
33.9532531816
33.9527401073
33.9529986871
33.9538372601
33.9548620568
33.9549983088
33.9514888071
33.9380878339
33.9007058632
33.8111345005
33.6183607215
33.2396583358
32.5584076118
31.4367892328
29.7488851431
27.4209641319
24.4490632935
20.8964887709
16.8764416853
12.3868423719
7.18099801067
1.83527526512
64.1004066881
60.3756766859
57.4716741049
55.1164764075
53.1463610367
51.461987243
49.9981919447
48.7110945199
47.5694476658
46.549926389
45.6345189978
44.8089369904