/*--------------------------------*- C++ -*----------------------------------*\
| =========                 |                                                 |
| \\      /  F ield         | OpenFOAM: The Open Source CFD Toolbox           |
|  \\    /   O peration     | Version:  2106                                  |
|   \\  /    A nd           | Website:  www.openfoam.com                      |
|    \\/     M anipulation  |                                                 |
\*---------------------------------------------------------------------------*/
FoamFile
{
    version     2.0;
    format      ascii;
    arch        "LSB;label=32;scalar=64";
    class       surfaceScalarField;
    location    "0.455";
    object      phi;
}
// * * * * * * * * * * * * * * * * * * * * * * * * * * * * * * * * * * * * * //

dimensions      [0 3 -1 0 0 0 0];

oriented        oriented;

internalField   nonuniform List<scalar> 
22100
(
3.38461200991e-05
1.61538798665e-05
2.24572087522e-05
1.13889104972e-05
1.62585512032e-05
6.19865685077e-06
1.27977736969e-05
3.46077691495e-06
1.08046394095e-05
1.9931337912e-06
9.60458605158e-06
1.20005293985e-06
8.8513179998e-06
7.53267687568e-07
8.36434889252e-06
4.86968754067e-07
8.04433069527e-06
3.20017819018e-07
7.83283556949e-06
2.11494728892e-07
7.69339208988e-06
1.39443103232e-07
7.6022349084e-06
9.11568415783e-08
7.54347185458e-06
5.87627674626e-08
7.50633467132e-06
3.71369445244e-08
7.4834948619e-06
2.28395807601e-08
7.46997368041e-06
1.35209103012e-08
7.46240866212e-06
7.56468843999e-09
7.45854026693e-06
3.86803381227e-09
7.45682083083e-06
1.71905055039e-09
7.45641387894e-06
4.06570605434e-10
7.45676345622e-06
-3.49832423476e-10
7.45744941555e-06
-6.86151716799e-10
7.4582075152e-06
-7.58270167078e-10
7.45893252728e-06
-7.25188148968e-10
7.45957649663e-06
-6.44184942747e-10
7.46012007982e-06
-5.43838651244e-10
7.46056190831e-06
-4.42075514136e-10
7.46091049774e-06
-3.48781284935e-10
7.46117878842e-06
-2.68391488594e-10
7.46138087012e-06
-2.02042765832e-10
7.46153004068e-06
-1.48971147563e-10
7.46163805434e-06
-1.07675662361e-10
7.4617144112e-06
-7.61641062012e-11
7.46176730734e-06
-5.268965921e-11
7.46180074273e-06
-3.32302993843e-11
7.46181959405e-06
-1.87883918894e-11
7.46182879027e-06
-9.19926757184e-12
7.46183172543e-06
-3.03576150833e-12
7.46183045408e-06
1.25499349443e-12
7.46182608343e-06
4.4207470431e-12
7.46181952631e-06
6.68604951893e-12
7.46181137401e-06
8.37456910373e-12
7.46180194026e-06
9.68555234741e-12
7.46179140639e-06
1.07989090067e-11
7.46177979053e-06
1.18692793118e-11
7.46176700678e-06
1.30386604257e-11
7.46175288172e-06
1.44126997964e-11
7.46173705943e-06
1.61080330469e-11
7.46171913098e-06
1.82586876434e-11
7.46169847669e-06
2.09761845639e-11
7.46167442777e-06
2.431349484e-11
7.4616462668e-06
2.83440812316e-11
7.46161324386e-06
3.3149003936e-11
7.46157454191e-06
3.88053254394e-11
7.46152932912e-06
4.53363623102e-11
7.46147680243e-06
5.26815570368e-11
7.46141628724e-06
6.06434566012e-11
7.46134771118e-06
6.86586260065e-11
7.46127164072e-06
7.59770207295e-11
7.46119068578e-06
8.08511495012e-11
7.46111135646e-06
7.92143466051e-11
7.46104565108e-06
6.54086933109e-11
7.46100105584e-06
4.39125723352e-11
7.46099710677e-06
3.12051916924e-12
7.46107020272e-06
-7.33914431551e-11
7.46127858072e-06
-2.08420017358e-10
7.46171660396e-06
-4.38055158938e-10
7.46253437278e-06
-8.1770297689e-10
7.46396704932e-06
-1.43258783711e-09
7.4663700565e-06
-2.40291118786e-09
7.47019247819e-06
-3.82236881818e-09
7.47664694921e-06
-6.4544761201e-09
7.48742283771e-06
-1.07759463533e-08
7.5056024912e-06
-1.8179703914e-08
7.53879143453e-06
-3.31888789022e-08
7.60800560039e-06
-6.92140309795e-08
7.77465523239e-06
-1.66649478692e-07
8.22951989061e-06
-4.54864447869e-07
9.69698792558e-06
-1.467467789e-06
-5.4507864143e-06
1.51477743498e-05
5.0217594441e-05
1.59362845787e-05
4.42441102272e-05
1.73623933974e-05
3.77794992992e-05
1.26632667019e-05
3.26461411377e-05
8.59413415728e-06
2.8938088447e-05
5.70118569467e-06
2.6359617545e-05
3.77852313497e-06
2.45875126611e-05
2.52537188095e-06
2.33734701279e-05
1.70101057542e-06
2.2543520601e-05
1.14996662539e-06
2.1978211453e-05
7.76803178388e-07
2.15955085019e-05
5.2214542016e-07
2.13387315639e-05
3.47933237481e-07
2.11684897142e-05
2.2900417655e-07
2.10573317889e-05
1.4829449196e-07
2.09861435247e-05
9.40274656959e-08
2.09416707509e-05
5.79932829054e-08
2.09147885218e-05
3.44465311439e-08
2.08992890286e-05
1.93672388998e-08
2.0891064927e-05
9.94282883922e-09
2.08872642972e-05
4.20693494516e-09
2.08861949998e-05
7.19258315471e-10
2.08864404423e-05
-9.3179031152e-10
2.08873115375e-05
-1.62965211894e-09
2.08884506363e-05
-1.86468077694e-09
2.08896235122e-05
-1.81755377025e-09
2.08907060604e-05
-1.62690731876e-09
2.08916432983e-05
-1.37976566069e-09
2.08924206211e-05
-1.12638803512e-09
2.0893045849e-05
-8.93636841493e-10
2.08935381983e-05
-6.94142761022e-10
2.08939222093e-05
-5.32650403044e-10
2.08942240402e-05
-4.09167045546e-10
2.08944352402e-05
-2.8697727501e-10
2.08945823942e-05
-1.99547932038e-10
2.08946828482e-05
-1.33471645208e-10
2.08947481744e-05
-8.41998487141e-11
2.08947887358e-05
-4.97345907062e-11
2.0894812717e-05
-2.68678724385e-11
2.08948249499e-05
-1.07002541795e-11
2.0894828401e-05
1.43062602502e-12
2.08948254503e-05
1.02050646007e-11
2.08948177181e-05
1.67060597371e-11
2.08948063041e-05
2.16579133612e-11
2.08947919348e-05
2.56856257225e-11
2.0894774996e-05
2.92943356241e-11
2.08947556524e-05
3.28438111166e-11
2.08947339605e-05
3.66518854234e-11
2.08947097673e-05
4.09004323527e-11
2.08946828734e-05
4.57840920079e-11
2.08946529375e-05
5.14888273969e-11
2.08946196991e-05
5.80111042134e-11
2.089458302e-05
6.53564778094e-11
2.08945429562e-05
7.34731774518e-11
2.08944998625e-05
8.21178328791e-11
2.08944546372e-05
9.07674107871e-11
2.08944090982e-05
9.84430311398e-11
2.08943665705e-05
1.03292871266e-10
2.08943331564e-05
1.02203473477e-10
2.08943182323e-05
9.08619870579e-11
2.0894337133e-05
6.15848500383e-11
2.0894417304e-05
-1.5896399928e-12
2.0894607156e-05
-1.25266404916e-10
2.08949754713e-05
-3.25028708017e-10
2.08956412962e-05
-6.63506125845e-10
2.08967108643e-05
-1.14362813344e-09
2.08983634453e-05
-1.86140324888e-09
2.09009566936e-05
-3.03127349559e-09
2.09050383731e-05
-4.89918380103e-09
2.09114776293e-05
-7.8717344296e-09
2.09216981321e-05
-1.2623496068e-08
2.09381901471e-05
-2.03145831743e-08
2.09650973112e-05
-3.33619100194e-08
2.10093592687e-05
-5.50380419789e-08
2.1084145768e-05
-9.29661889439e-08
2.12153770098e-05
-1.64419994649e-07
2.14559484726e-05
-3.09785289611e-07
2.19136896834e-05
-6.24390380035e-07
2.28004578176e-05
-1.34163224069e-06
2.44439653847e-05
-3.11097531034e-06
-7.03658861241e-06
2.60297685309e-05
5.35171048227e-05
1.24191790415e-05
5.29349667935e-05
1.7944530285e-05
4.96538377403e-05
1.59443948318e-05
4.58401783268e-05
1.24077927908e-05
4.24400886716e-05
9.10127467691e-06
3.97291681266e-05
6.48944307184e-06
3.76873010918e-05
4.56723832282e-06
3.6197657709e-05
3.19065335414e-06
3.51326065184e-05
2.21501721094e-06
3.43823609311e-05
1.52704819159e-06
3.38606194494e-05
1.04388637442e-06
3.35023387586e-05
7.06213466879e-07
3.32595934437e-05
4.71749079782e-07
3.30975827224e-05
3.10304808469e-07
3.29913261862e-05
2.00283562643e-07
3.29230838056e-05
1.26235206126e-07
3.28803953324e-05
7.71345194926e-08
3.28546096571e-05
4.51523874335e-08
3.28397820806e-05
2.47699803389e-08
3.28318551346e-05
1.21335628083e-08
3.28279852933e-05
4.5888508427e-09
3.28269862751e-05
6.69716855175e-11
3.2827166631e-05
-1.81029194089e-09
3.28280145503e-05
-2.71297214063e-09
3.28291297792e-05
-2.93321390349e-09
3.28302764969e-05
-2.77403934978e-09
3.28313320303e-05
-2.43561428633e-09
3.28322421459e-05
-2.03663854255e-09
3.28329920375e-05
-1.64343252505e-09
3.28335877379e-05
-1.28954266521e-09
3.28340441941e-05
-9.8883693176e-10
3.28343792519e-05
-7.44030725951e-10
3.28346457472e-05
-5.53330519416e-10
3.28348619452e-05
-4.15774966411e-10
3.28350089705e-05
-2.80752604543e-10
3.28351079804e-05
-1.83311605208e-10
3.28351736797e-05
-1.15438063879e-10
3.2835215496e-05
-6.85717134636e-11
3.28352403557e-05
-3.53335998391e-11
3.2835252213e-05
-1.01049360885e-11
3.28352546166e-05
8.20770997855e-12
3.28352500131e-05
2.17330596379e-11
3.28352402118e-05
3.18828738001e-11
3.2835226428e-05
3.98674195663e-11
3.28352094433e-05
4.66797339749e-11
3.28351897896e-05
5.2947060443e-11
3.28351677861e-05
5.91489710013e-11
3.28351436518e-05
6.557664749e-11
3.28351174827e-05
7.24791618345e-11
3.28350892167e-05
8.01992687888e-11
3.28350591216e-05
8.84395941006e-11
3.28350278224e-05
9.68875877009e-11
3.28349963957e-05
1.05075564342e-10
3.28349666958e-05
1.12001008349e-10
3.28349417545e-05
1.15873975361e-10
3.28349262059e-05
1.14138350292e-10
3.28349272429e-05
1.02342487344e-10
3.28349564631e-05
7.29684784037e-11
3.28350311091e-05
1.59284200848e-11
3.28351810873e-05
-8.90256199927e-11
3.2835458048e-05
-2.79262334729e-10
3.28359518481e-05
-6.19858568708e-10
3.28366731324e-05
-1.04712609341e-09
3.28377207195e-05
-1.71160988003e-09
3.2839354829e-05
-2.77811662667e-09
3.28419490443e-05
-4.45570409711e-09
3.28460078371e-05
-7.08997285154e-09
3.28523456716e-05
-1.1237050643e-08
3.28622755101e-05
-1.78017801629e-08
3.28779615121e-05
-2.83097868779e-08
3.29030633132e-05
-4.54166281502e-08
3.29429298941e-05
-7.32286151244e-08
3.30073878608e-05
-1.19496003566e-07
3.31134122326e-05
-1.98990412448e-07
3.32900030649e-05
-3.41010609771e-07
3.35853413933e-05
-6.05123357073e-07
3.4070468047e-05
-1.10951672344e-06
3.48114591511e-05
-2.08262307941e-06
3.56720512196e-05
-3.9715674547e-06
-7.10444969456e-06
3.5739911579e-05
5.35105659176e-05
8.90861246935e-06
5.55742206825e-05
1.58808744549e-05
5.52424801269e-05
1.62761345183e-05
5.35977828683e-05
1.40524893118e-05
5.15418440036e-05
1.11572128987e-05
4.95802756964e-05
8.45101078642e-06
4.79243461606e-05
6.22316727795e-06
4.66181337862e-05
4.49686515331e-06
4.56304604824e-05
3.20268993165e-06
4.49051110537e-05
2.2523970682e-06
4.43840834207e-05
1.5649135117e-06
4.40166868704e-05
1.07360958724e-06
4.37619599998e-05
7.26475554987e-07
4.35882609953e-05
4.84003389743e-07
4.34718611899e-05
3.16682881925e-07
4.33953506103e-05
2.02745225566e-07
4.33461798412e-05
1.26304783943e-07
4.33154417599e-05
7.58900154849e-08
4.32969049888e-05
4.33063874755e-08
4.32862785793e-05
2.27597007282e-08
4.32806754552e-05
1.01917751788e-08
4.32778674928e-05
2.87473962671e-09
4.32770393518e-05
-9.82419013919e-10
4.32772568364e-05
-2.93081312078e-09
4.32779439333e-05
-3.62073033109e-09
4.32788065794e-05
-3.63709601801e-09
4.3279679088e-05
-3.30841931581e-09
4.32804764145e-05
-2.83406162499e-09
4.32811622192e-05
-2.3291362733e-09
4.32817281973e-05
-1.85535495652e-09
4.32821812368e-05
-1.44144594767e-09
4.32825338288e-05
-1.09609072387e-09
4.3282795706e-05
-8.14611501277e-10
4.32829711952e-05
-5.90974406861e-10
4.32831040779e-05
-4.13556373016e-10
4.32831894127e-05
-2.68530041463e-10
4.32832434046e-05
-1.693504512e-10
4.32832833051e-05
-1.08335178225e-10
4.32833079144e-05
-5.97034048998e-11
4.32833202418e-05
-2.21156265376e-11
4.32833236887e-05
5.14801105223e-12
4.32833201477e-05
2.56539758255e-11
4.32833113213e-05
4.10583951003e-11
4.32832983749e-05
5.31236816886e-11
4.32832820051e-05
6.33307054741e-11
4.32832627273e-05
7.25825380875e-11
4.32832409032e-05
8.13985585968e-11
4.3283216831e-05
9.01468417688e-11
4.32831908043e-05
9.90276347385e-11
4.32831634005e-05
1.08080819274e-10
4.32831352043e-05
1.16991371293e-10
4.32831072376e-05
1.25188204413e-10
4.32830809771e-05
1.31636619168e-10
4.32830585196e-05
1.34704238277e-10
4.32830428328e-05
1.31772710378e-10
4.32830384714e-05
1.18667242426e-10
4.32830536883e-05
8.72631944036e-11
4.32831003578e-05
2.62775612489e-11
4.32831979313e-05
-8.16915719258e-11
4.32833616994e-05
-2.53366338725e-10
4.32836097321e-05
-5.27933177352e-10
4.32840581808e-05
-1.06845613258e-09
4.32848379955e-05
-1.82722341327e-09
4.32861004527e-05
-2.97439508102e-09
4.32880542033e-05
-4.7320921607e-09
4.32910497569e-05
-7.45138289258e-09
4.32956471045e-05
-1.16873014205e-08
4.33027250126e-05
-1.83149039158e-08
4.33136656694e-05
-2.87424164202e-08
4.33306267858e-05
-4.52709509803e-08
4.33569168031e-05
-7.17067158969e-08
4.33981040777e-05
-1.14415908689e-07
4.34630357612e-05
-1.84427663927e-07
4.35654275822e-05
-3.01382131408e-07
4.37252185727e-05
-5.0080142148e-07
4.39669782298e-05
-8.4688271434e-07
4.43073294297e-05
-1.44986754937e-06
4.4707511717e-05
-2.48280509112e-06
4.49265587008e-05
-4.19061402668e-06
-6.57495660936e-06
4.43970650891e-05
5.27351374382e-05
6.17347440552e-06
5.57309328661e-05
1.28850779952e-05
5.73114718627e-05
1.46955946815e-05
5.76109886628e-05
1.37529717936e-05
5.71335189237e-05
1.16346820188e-05
5.63194639388e-05
9.26506520753e-06
5.54489833672e-05
7.09364729217e-06
5.46629724499e-05
5.28287552633e-06
5.40136765478e-05
3.85198528929e-06
5.3506144901e-05
2.75992819279e-06
5.31242487112e-05
1.94680922498e-06
5.28449789413e-05
1.35287892906e-06
5.26454324932e-05
9.26021598688e-07
5.25057080314e-05
6.23727434413e-07
5.24097130114e-05
4.12677464303e-07
5.23450067034e-05
2.67451041383e-07
5.2302268591e-05
1.69042409311e-07
5.22746811856e-05
1.03477012694e-07
5.22573564509e-05
6.0630795972e-08
5.22468476088e-05
3.32682769241e-08
5.22407477514e-05
1.6291412664e-08
5.22374386358e-05
6.18360450985e-09
5.22359395896e-05
5.1629591962e-10
5.22354311289e-05
-2.42276670102e-09
5.22354954907e-05
-3.68553279949e-09
5.22358403683e-05
-3.98236506528e-09
5.22362941276e-05
-3.76243827197e-09
5.22367601955e-05
-3.3001885155e-09
5.22371874914e-05
-2.75625462878e-09
5.22375532032e-05
-2.22076851532e-09
5.22378506184e-05
-1.73848037866e-09
5.22380824357e-05
-1.32756629928e-09
5.22382587851e-05
-9.90906477497e-10
5.22383917285e-05
-7.23791505474e-10
5.22384920118e-05
-5.13753936272e-10
5.2238576566e-05
-3.52998195642e-10
5.22386421095e-05
-2.3475227936e-10
5.22386845011e-05
-1.50569914704e-10
5.22387174263e-05
-9.23770006268e-11
5.22387331273e-05
-3.74794502137e-11
5.22387387183e-05
-7.38195757362e-14
5.22387367191e-05
2.79818977731e-11
5.2238729118e-05
4.89298900496e-11
5.22387172202e-05
6.52400464109e-11
5.22387019184e-05
7.8850768131e-11
5.22386838925e-05
9.09269072558e-11
5.22386636095e-05
1.02116356163e-10
5.22386416866e-05
1.12614821501e-10
5.2238619363e-05
1.21932438795e-10
5.22385944463e-05
1.33522028313e-10
5.22385686242e-05
1.4337039661e-10
5.22385430513e-05
1.51294829864e-10
5.22385193482e-05
1.55793443683e-10
5.22385002057e-05
1.54163762044e-10
5.22384916124e-05
1.40721266738e-10
5.22385013818e-05
1.09234080786e-10
5.22385342884e-05
5.51891714539e-11
5.22386135658e-05
-5.294702588e-11
5.22387354463e-05
-2.04217022024e-10
5.22389339822e-05
-4.5252006631e-10
5.22392740406e-05
-8.68659636389e-10
5.22397967918e-05
-1.59159618435e-09
5.2240575861e-05
-2.60646481312e-09
5.22417443097e-05
-4.14300217712e-09
5.22435058704e-05
-6.49366062556e-09
5.2246162001e-05
-1.01074073213e-08
5.22501648381e-05
-1.56900691073e-08
5.22562059031e-05
-2.43559366687e-08
5.22653443889e-05
-3.78809152644e-08
5.22791979801e-05
-5.91245404123e-08
5.23002244959e-05
-9.27332474573e-08
5.23321393257e-05
-1.46330673137e-07
5.23802848347e-05
-2.3257297337e-07
5.24515844176e-05
-3.72681491271e-07
5.25528968647e-05
-6.02113664539e-07
5.26847601834e-05
-9.7874584795e-07
5.28249413106e-05
-1.5900484601e-06
5.28919537352e-05
-2.54981746013e-06
5.26733617184e-05
-3.97202171892e-06
-5.76612307769e-06
5.18645279192e-05
5.19834858936e-05
4.18998792146e-06
5.50586623819e-05
9.8099005041e-06
5.76386107808e-05
1.21156454661e-05
5.93259000211e-05
1.20656818516e-05
6.02280114522e-05
1.07325699678e-05
6.0592922111e-05
8.90015399447e-06
6.06482785483e-05
7.03829033086e-06
6.05531836298e-05
5.3779699404e-06
6.04029486076e-05
4.00221982832e-06
6.02479076648e-05
2.91496867284e-06
6.01107817205e-05
2.08393474278e-06
5.99990217964e-05
1.46463845899e-06
5.99125062097e-05
1.01253679679e-06
5.98479138718e-05
6.883193567e-07
5.9801009795e-05
4.5958105586e-07
5.97677245989e-05
3.0073573153e-07
5.9744582704e-05
1.92183818749e-07
5.97288036748e-05
1.19255625692e-07
5.97182551052e-05
7.11790221808e-08
5.97113485619e-05
4.01745573276e-08
5.97069288904e-05
2.07108405899e-08
5.97041946403e-05
8.91756203246e-09
5.97025851844e-05
2.12536983054e-09
5.97016801701e-05
-1.51820229283e-09
5.9701221378e-05
-3.2271939433e-09
5.97010314229e-05
-3.79277765507e-09
5.97009948478e-05
-3.72606461809e-09
5.97010390458e-05
-3.34438409599e-09
5.9701120271e-05
-2.83732183723e-09
5.97012128249e-05
-2.31300921725e-09
5.97013027292e-05
-1.82804705962e-09
5.97013833548e-05
-1.40780073349e-09
5.97014531166e-05
-1.06043283413e-09
5.97015127034e-05
-7.83196287199e-10
5.97015628902e-05
-5.63806447655e-10
5.97016026542e-05
-3.92642878895e-10
5.97016304613e-05
-2.62400655568e-10
5.97016458646e-05
-1.65757608034e-10
5.97016444571e-05
-9.07056527801e-11
5.97016367579e-05
-2.94842492009e-11
5.97016305502e-05
6.44318308148e-12
5.97016216545e-05
3.71339271022e-11
5.97016116581e-05
5.91086679657e-11
5.97016004903e-05
7.66384022962e-11
5.97015871748e-05
9.24089034572e-11
5.97015716458e-05
1.06811106894e-10
5.97015540061e-05
1.20234308313e-10
5.97015343032e-05
1.32892797496e-10
5.97015120709e-05
1.44697107806e-10
5.97014907417e-05
1.55382615282e-10
5.970147034e-05
1.6428475921e-10
5.9701452056e-05
1.70044682586e-10
5.97014375281e-05
1.70714563558e-10
5.97014282256e-05
1.6372342703e-10
5.97014228872e-05
1.46177235382e-10
5.97014147285e-05
1.17297975162e-10
5.97014212121e-05
4.79783487419e-11
5.97014338866e-05
-6.54705732945e-11
5.97015229962e-05
-2.93320943769e-10
5.97017152835e-05
-6.4531945324e-10
5.97020180543e-05
-1.17176469645e-09
5.9702409015e-05
-1.98286310447e-09
5.97029929301e-05
-3.19047034591e-09
5.97038521312e-05
-5.00214473082e-09
5.97051007819e-05
-7.74227719311e-09
5.97069042265e-05
-1.1910745196e-08
5.97095007407e-05
-1.82865285013e-08
5.97132346941e-05
-2.80899033574e-08
5.97185962299e-05
-4.32424939483e-08
5.9726266448e-05
-6.67947990708e-08
5.97371469795e-05
-1.03613805664e-07
5.97523004861e-05
-1.61484129153e-07
5.97725645693e-05
-2.52836875595e-07
5.97973470416e-05
-3.97463764867e-07
5.98214907532e-05
-6.26257204995e-07
5.98281215309e-05
-9.85376498253e-07
5.97752046521e-05
-1.53713144273e-06
5.95748372447e-05
-2.34945006897e-06
5.90692411127e-05
-3.46642549583e-06
-4.79517628777e-06
5.80982942055e-05
5.1437304783e-05
2.75268256212e-06
5.4265818964e-05
6.98138533038e-06
5.72496407799e-05
9.13182283796e-06
5.97900244121e-05
9.52529752791e-06
6.17201242771e-05
8.80246948247e-06
6.30882986737e-05
7.53197903538e-06
6.40167117462e-05
6.10987675117e-06
6.46292310909e-05
4.76545011665e-06
6.50257976182e-05
3.60565284467e-06
6.52790717797e-05
2.66169406954e-06
6.54389664309e-05
1.92403965998e-06
6.55386828618e-05
1.36492158006e-06
6.55999209762e-05
9.512981991e-07
6.56367353353e-05
6.5150448547e-07
6.56581859326e-05
4.38129909948e-07
6.5670093643e-05
2.88827475454e-07
6.56761823953e-05
1.86094554746e-07
6.56788182883e-05
1.16619302262e-07
6.56794883871e-05
7.05085682411e-08
6.56791119134e-05
4.05507448668e-08
6.56782442724e-05
2.15782039935e-08
6.56772130723e-05
9.94842484442e-09
6.56762034724e-05
3.13455771212e-09
6.5675293803e-05
-6.08986973634e-10
6.56745247139e-05
-2.45853999413e-09
6.56738960429e-05
-3.16442176894e-09
6.56733969797e-05
-3.22712803873e-09
6.56730101084e-05
-2.95737482133e-09
6.5672716413e-05
-2.54327851069e-09
6.56724976907e-05
-2.09380029058e-09
6.56723377192e-05
-1.66763660736e-09
6.56722227794e-05
-1.29249939913e-09
6.56721407036e-05
-9.78051163531e-10
6.56720808422e-05
-7.23186867676e-10
6.56720374732e-05
-5.20352434554e-10
6.56720064103e-05
-3.61507038537e-10
6.56719815527e-05
-2.37450701102e-10
6.56719602637e-05
-1.44283546281e-10
6.56719456385e-05
-7.58375804918e-11
6.56719442809e-05
-2.78577693007e-11
6.5671943133e-05
7.81317425687e-12
6.56719361275e-05
4.42468002008e-11
6.56719263564e-05
6.89560224277e-11
6.56719142418e-05
8.88124772603e-11
6.56719006871e-05
1.06132745032e-10
6.56718857778e-05
1.22063667478e-10
6.56718693768e-05
1.37171622965e-10
6.56718513554e-05
1.51556483463e-10
6.56718321546e-05
1.64639480623e-10
6.56718138088e-05
1.74470567567e-10
6.56717953078e-05
1.83504439277e-10
6.56717770756e-05
1.88890647146e-10
6.56717602884e-05
1.88112806295e-10
6.56717469025e-05
1.77772218843e-10
6.56717409313e-05
1.53343117787e-10
6.56717501776e-05
1.08515298628e-10
6.56717553762e-05
4.25225683352e-11
6.56717926064e-05
-1.03496515485e-10
6.56718613481e-05
-3.62310536014e-10
6.56719622134e-05
-7.46484623539e-10
6.56721154453e-05
-1.325574553e-09
6.56723285887e-05
-2.19635810944e-09
6.56726184939e-05
-3.48043772496e-09
6.56730019341e-05
-5.38526737175e-09
6.56734899609e-05
-8.22997336764e-09
6.56740805086e-05
-1.25011271667e-08
6.5674743832e-05
-1.89498269149e-08
6.56753950482e-05
-2.87411505259e-08
6.56758341463e-05
-4.36816569276e-08
6.56756346505e-05
-6.65954164875e-08
6.56739286102e-05
-1.01907770066e-07
6.56689843356e-05
-1.56539725821e-07
6.56572709778e-05
-2.41123318614e-07
6.56316648255e-05
-3.71857392491e-07
6.55780230523e-05
-5.72615292956e-07
6.54691276596e-05
-8.76481021481e-07
6.52558387749e-05
-1.32384255061e-06
6.48581599262e-05
-1.95177126304e-06
6.41637083204e-05
-2.7719738796e-06
-3.71388893763e-06
6.30824208612e-05
5.10850417611e-05
1.66764022742e-06
5.36118429272e-05
4.45458316116e-06
5.66873139983e-05
6.05635093517e-06
5.96894432884e-05
6.52316752478e-06
6.22997232886e-05
6.19218886742e-06
6.44136843264e-05
5.41801744388e-06
6.60471800242e-05
4.47638056843e-06
6.7268611177e-05
3.54401851889e-06
6.81598898537e-05
2.71437373808e-06
6.87977561275e-05
2.02382738078e-06
6.92467402054e-05
1.47505517014e-06
6.95579587454e-05
1.05370261063e-06
6.97704251097e-05
7.3883135577e-07
6.99131678379e-05
5.08761216688e-07
7.00073786041e-05
3.43918559656e-07
7.00682878579e-05
2.2791764151e-07
7.01066896421e-05
1.476922351e-07
7.0130131784e-05
9.31766985161e-08
7.01438208282e-05
5.68191452293e-08
7.0151296903e-05
3.30743416656e-08
7.01549293584e-05
1.79454164533e-08
7.01562770725e-05
8.60033089046e-09
7.01563488147e-05
3.06236555258e-09
7.01557566171e-05
-1.72886328037e-11
7.01548955636e-05
-1.59793312615e-09
7.01539718607e-05
-2.24104204928e-09
7.01531032898e-05
-2.35867374166e-09
7.01523435106e-05
-2.19753916751e-09
7.0151709729e-05
-1.90928824723e-09
7.01511990119e-05
-1.58280446346e-09
7.01507983984e-05
-1.26668640353e-09
7.01504908233e-05
-9.84679580137e-10
7.0150258665e-05
-7.45692218478e-10
7.01500857305e-05
-5.5014365506e-10
7.01499590514e-05
-3.93626963385e-10
7.01498680368e-05
-2.70419561047e-10
7.01498056023e-05
-1.74894031122e-10
7.01497643299e-05
-1.02796549828e-10
7.01497362013e-05
-4.74203137433e-11
7.01497066015e-05
2.02833646446e-12
7.0149683607e-05
3.10288919844e-11
7.01496709266e-05
5.70793807766e-11
7.01496607273e-05
7.92730556704e-11
7.01496511949e-05
9.84511601498e-11
7.01496416541e-05
1.15879859909e-10
7.01496317517e-05
1.3233303688e-10
7.01496213415e-05
1.48121607677e-10
7.01496104075e-05
1.63139238166e-10
7.01495987884e-05
1.76960258391e-10
7.01495850387e-05
1.88969839504e-10
7.01495710245e-05
1.98247285951e-10
7.0149557569e-05
2.03004531908e-10
7.01495454005e-05
2.00781647159e-10
7.01495351127e-05
1.88410185573e-10
7.01495260501e-05
1.62054823097e-10
7.01495154318e-05
1.19422569674e-10
7.01495107207e-05
4.7362531223e-11
7.01494990152e-05
-9.14068435138e-11
7.01495122418e-05
-3.75663105944e-10
7.01495371924e-05
-7.71382472393e-10
7.01495621982e-05
-1.35100464412e-09
7.01495665474e-05
-2.20090058712e-09
7.01495236156e-05
-3.43751801543e-09
7.01493802656e-05
-5.2418149712e-09
7.01490377491e-05
-7.88715555745e-09
7.01483210559e-05
-1.17842236189e-08
7.0146928831e-05
-1.75575832866e-08
7.01443502746e-05
-2.61626789638e-08
7.01397123537e-05
-3.90438513419e-08
7.01315352681e-05
-5.84184691435e-08
7.01173309174e-05
-8.77034658894e-08
7.00929478672e-05
-1.32156577872e-07
7.00513021339e-05
-1.9947737286e-07
6.99804283082e-05
-3.00983321885e-07
6.98603743169e-05
-4.52561148605e-07
6.96587186662e-05
-6.74825268763e-07
6.93255857571e-05
-9.90709603277e-07
6.87914866697e-05
-1.41767223526e-06
6.79739257144e-05
-1.95441291654e-06
-2.5549109554e-06
6.68149476621e-05
5.08804125821e-05
7.87227058347e-07
5.31704645226e-05
2.16453018818e-06
5.62177472267e-05
3.0090673844e-06
5.94382664947e-05
3.3026475127e-06
6.24449656923e-05
3.18548904354e-06
6.50382485871e-05
2.824734018e-06
6.71548617116e-05
2.35976699422e-06
6.88135598086e-05
1.8853200259e-06
7.00731654377e-05
1.45476773924e-06
7.10056620454e-05
1.09133041318e-06
7.16812579761e-05
7.99458854171e-07
7.21614169349e-05
5.73543206035e-07
7.24965974172e-05
4.03650366611e-07
7.27264734735e-05
2.7888458861e-07
7.28812718406e-05
1.89119581677e-07
7.29834610648e-05
1.25727806795e-07
7.30494043589e-05
8.17483784377e-08
7.3090806044e-05
5.17745187941e-08
7.31158996351e-05
3.17251253422e-08
7.31303838434e-05
1.8589737997e-08
7.31381382573e-05
1.01906008198e-08
7.31417583614e-05
4.97978901766e-09
7.31429456949e-05
1.87454290438e-09
7.31427988672e-05
1.29031161076e-10
7.31419752822e-05
-7.74813508724e-10
7.3140892088e-05
-1.15823869265e-09
7.31397770888e-05
-1.24387630323e-09
7.31387496755e-05
-1.17016839007e-09
7.31378623381e-05
-1.02181030195e-09
7.31371288679e-05
-8.4910534818e-10
7.31365418875e-05
-6.7940034904e-10
7.31360839045e-05
-5.26448117811e-10
7.31357340306e-05
-3.95680288652e-10
7.31354716683e-05
-2.8768736187e-10
7.31352784824e-05
-2.003859117e-10
7.31351388793e-05
-1.30757655812e-10
7.31350396513e-05
-7.55364419028e-11
7.31349683028e-05
-3.12522825448e-11
7.31349153919e-05
5.67356800268e-12
7.31348858924e-05
3.16979354751e-11
7.3134863016e-05
5.40469748631e-11
7.31348464305e-05
7.37125425599e-11
7.31348342942e-05
9.14792877441e-11
7.31348248546e-05
1.08027158194e-10
7.31348169259e-05
1.24103799939e-10
7.31348096442e-05
1.40072491604e-10
7.31348023577e-05
1.55965827026e-10
7.31347946136e-05
1.71515675779e-10
7.31347861214e-05
1.86159938565e-10
7.31347768321e-05
1.99007156842e-10
7.31347667687e-05
2.09020639201e-10
7.31347560016e-05
2.14410518154e-10
7.3134744551e-05
2.12697934363e-10
7.31347328061e-05
2.0062486596e-10
7.31347212965e-05
1.73986896998e-10
7.31347119747e-05
1.28385418179e-10
7.31346949223e-05
6.41931027189e-11
7.31346732105e-05
-6.93861714554e-11
7.3134632708e-05
-3.35470036669e-10
7.31345680206e-05
-7.06731707899e-10
7.31344553665e-05
-1.23845698887e-09
7.31342515538e-05
-1.99739163532e-09
7.31338889886e-05
-3.0749479221e-09
7.31332527273e-05
-4.60545918287e-09
7.31321499573e-05
-6.7841997977e-09
7.31302590873e-05
-9.89325613026e-09
7.31270526468e-05
-1.43511968934e-08
7.31216762294e-05
-2.07864448787e-08
7.31127184318e-05
-3.00862835696e-08
7.30978758693e-05
-4.35760227997e-08
7.30734417515e-05
-6.32693422104e-08
7.30335215111e-05
-9.22361804056e-08
7.29686065236e-05
-1.34562125896e-07
7.28636855255e-05
-1.96062067895e-07
7.26956018705e-05
-2.8447730611e-07
7.24298703623e-05
-4.09093657935e-07
7.20181527575e-05
-5.78991957217e-07
7.13992862354e-05
-7.98805794066e-07
7.05077689243e-05
-1.06289559772e-06
-1.34618256644e-06
6.92990406012e-05
5.078717198e-05
5.44802643291e-11
5.29516481685e-05
5.2917996685e-11
5.59606859191e-05
2.87503528398e-11
5.926331863e-05
1.40332641852e-11
6.24488045369e-05
2.49183278843e-12
6.52735445179e-05
-6.49576265344e-12
6.76333235495e-05
-1.24715252903e-11
6.9518658661e-05
-1.54638644952e-11
7.09734419563e-05
-1.59012246398e-11
7.20647864116e-05
-1.43777868584e-11
7.28642564414e-05
-1.15341128283e-11
7.34378072591e-05
-8.04444974014e-12
7.38414616733e-05
-4.57071811785e-12
7.41203474417e-05
-1.7689037605e-12
7.43094666351e-05
-2.18806376192e-13
7.44351941894e-05
-3.54304652847e-13
7.45169444112e-05
-2.40784861841e-12
7.45687245704e-05
-6.14562554666e-12
7.46004601827e-05
-1.09385546556e-11
7.46190653146e-05
-1.58171884305e-11
7.46292751485e-05
-1.96576678001e-11
7.46342758475e-05
-2.13630217559e-11
7.46361703617e-05
-2.04466356524e-11
7.46363170987e-05
-1.81728539519e-11
7.46355575646e-05
-1.56531104358e-11
7.46344115546e-05
-1.24747953263e-11
7.46331763657e-05
-8.79209229717e-12
7.46320109425e-05
-4.72382751833e-12
7.46309891824e-05
1.16305765713e-13
7.46301359585e-05
4.34339451771e-12
7.46294478061e-05
8.93543434957e-12
7.46289076484e-05
1.38254886763e-11
7.46284930741e-05
1.89511943588e-11
7.46281810229e-05
2.44207107527e-11
7.46279503018e-05
3.04213436125e-11
7.4627782579e-05
3.70886129232e-11
7.46276627115e-05
4.45149327542e-11
7.46275790196e-05
5.26556497825e-11
7.46275234163e-05
6.14900930596e-11
7.46274845995e-05
7.06524550584e-11
7.46274586259e-05
8.01056128506e-11
7.46274416538e-05
9.07254736761e-11
7.46274307416e-05
1.02455090788e-10
7.4627423726e-05
1.1522005846e-10
7.46274191213e-05
1.29057123007e-10
7.46274158679e-05
1.43846229611e-10
7.46274131671e-05
1.59288864518e-10
7.46274104712e-05
1.74936927156e-10
7.46274073218e-05
1.90103026018e-10
7.46274033507e-05
2.03825827184e-10
7.46273983559e-05
2.14888219191e-10
7.46273920842e-05
2.21492753267e-10
7.46273840489e-05
2.21271689444e-10
7.46273734786e-05
2.11265248499e-10
7.46273596328e-05
1.88153818495e-10
7.46273409801e-05
1.48053803719e-10
7.46273152965e-05
8.98094666868e-11
7.46272699222e-05
-2.46434989595e-11
7.46271824576e-05
-2.48308236735e-10
7.46270475459e-05
-5.71941101024e-10
7.46268257424e-05
-1.01624258878e-09
7.46264560532e-05
-1.62757035355e-09
7.46258425567e-05
-2.46132215645e-09
7.46248286855e-05
-3.59127981433e-09
7.46231593898e-05
-5.11464989215e-09
7.46204183871e-05
-7.15218082789e-09
7.46159385989e-05
-9.87147128154e-09
7.46086631372e-05
-1.35111368048e-08
7.45968573786e-05
-1.82808114567e-08
7.45777224045e-05
-2.44412639824e-08
7.45468396477e-05
-3.23866179989e-08
7.44974848184e-05
-4.28812137669e-08
7.44189292059e-05
-5.60062549222e-08
7.42947841961e-05
-7.1916800665e-08
7.41006858175e-05
-9.03787725194e-08
7.38018395313e-05
-1.10247347738e-07
7.33516168105e-05
-1.28769182754e-07
7.26935908832e-05
-1.40779827228e-07
7.17697926723e-05
-1.39097295411e-07
-1.1523995964e-07
7.05388502758e-05
5.078717093e-05
-7.87117050734e-07