/*--------------------------------*- C++ -*----------------------------------*\
| =========                 |                                                 |
| \\      /  F ield         | OpenFOAM: The Open Source CFD Toolbox           |
|  \\    /   O peration     | Version:  2106                                  |
|   \\  /    A nd           | Website:  www.openfoam.com                      |
|    \\/     M anipulation  |                                                 |
\*---------------------------------------------------------------------------*/
FoamFile
{
    version     2.0;
    format      ascii;
    arch        "LSB;label=32;scalar=64";
    class       volVectorField;
    location    "0.48";
    object      U;
}
// * * * * * * * * * * * * * * * * * * * * * * * * * * * * * * * * * * * * * //

dimensions      [0 1 -1 0 0 0 0];

internalField   nonuniform List<vector> 
9600
(
(0.675396184185 0.157677433954 0)
(0.563826157412 0.102430805416 0)
(0.38153892805 0.0510646936123 0)
(0.283853188827 0.0244589892353 0)
(0.232281030252 0.0119348224815 0)
(0.201907711924 0.00623035792838 0)
(0.183178410172 0.00352192681129 0)
(0.171271990416 0.00212007543574 0)
(0.163512244794 0.00132523563031 0)
(0.158392663124 0.000841456364247 0)
(0.155010700292 0.000534135468632 0)
(0.152789981569 0.000335039216244 0)
(0.151348693398 0.000205520868854 0)
(0.150429245993 0.000121791980931 0)
(0.14985645878 6.84338581178e-05 0)
(0.149511122319 3.51730774183e-05 0)
(0.14931251273 1.50864354559e-05 0)
(0.149206462557 3.5036677749e-06 0)
(0.149157082048 -2.70693301649e-06 0)
(0.149140972485 -5.61146473051e-06 0)
(0.149143256006 -6.5270935476e-06 0)
(0.149154652955 -6.41784506169e-06 0)
(0.149169592852 -5.78191531089e-06 0)
(0.149184965542 -4.92819267134e-06 0)
(0.149199137021 -4.04274232899e-06 0)
(0.149211385801 -3.22387501241e-06 0)
(0.149221523856 -2.51513064569e-06 0)
(0.149229651627 -1.92844804663e-06 0)
(0.149236006338 -1.45852158746e-06 0)
(0.149240872572 -1.09176083708e-06 0)
(0.149244532793 -8.11751922283e-07 0)
(0.149247242028 -6.02080102573e-07 0)
(0.149249217586 -4.4775009597e-07 0)
(0.149250637628 -3.35925486161e-07 0)
(0.149251643938 -2.56015653995e-07 0)
(0.149252346727 -1.99453909464e-07 0)
(0.149252830163 -1.59514528604e-07 0)
(0.149253157453 -1.31069755281e-07 0)
(0.149253375237 -1.10285481438e-07 0)
(0.149253517396 -9.44726352386e-08 0)
(0.149253608259 -8.21262744263e-08 0)
(0.149253665272 -7.32773014821e-08 0)
(0.149253699747 -6.95963008807e-08 0)
(0.149253718467 -7.04840256077e-08 0)
(0.149253726888 -7.35645923577e-08 0)
(0.149253729298 -7.80423777201e-08 0)
(0.149253728274 -8.40592678101e-08 0)
(0.149253725407 -9.16765803903e-08 0)
(0.149253721543 -1.00207497096e-07 0)
(0.149253717248 -1.0920759514e-07 0)
(0.149253713004 -1.18594673078e-07 0)
(0.149253709153 -1.28370132392e-07 0)
(0.149253705842 -1.38645123355e-07 0)
(0.149253703004 -1.49474887266e-07 0)
(0.149253700464 -1.60960854565e-07 0)
(0.149253697971 -1.73221605438e-07 0)
(0.149253695288 -1.86415865076e-07 0)
(0.149253692286 -2.00612912336e-07 0)
(0.149253688981 -2.15835422143e-07 0)
(0.149253685484 -2.32078569906e-07 0)
(0.149253681949 -2.49344369363e-07 0)
(0.149253678437 -2.67667833721e-07 0)
(0.14925367485 -2.8714820276e-07 0)
(0.149253670996 -3.078958364e-07 0)
(0.149253666749 -3.29980655015e-07 0)
(0.149253662088 -3.53444171113e-07 0)
(0.149253657083 -3.78316488898e-07 0)
(0.149253651855 -4.04607181537e-07 0)
(0.149253646539 -4.32364838871e-07 0)
(0.149253641231 -4.61661199787e-07 0)
(0.149253635977 -4.92545286601e-07 0)
(0.149253630739 -5.25128268289e-07 0)
(0.149253625389 -5.59515291534e-07 0)
(0.149253619747 -5.95844475037e-07 0)
(0.149253613623 -6.34257788615e-07 0)
(0.149253606952 -6.74861730662e-07 0)
(0.149253599877 -7.17661274854e-07 0)
(0.149253592717 -7.62614141511e-07 0)
(0.14925358576 -8.09720909441e-07 0)
(0.149253579049 -8.59043429129e-07 0)
(0.149253572349 -9.1069012927e-07 0)
(0.149253565301 -9.6479421018e-07 0)
(0.149253557666 -1.02147457162e-06 0)
(0.149253549494 -1.08080742836e-06 0)
(0.149253541098 -1.14282360021e-06 0)
(0.149253532852 -1.20752403022e-06 0)
(0.149253525003 -1.27491478627e-06 0)
(0.149253517628 -1.34503171264e-06 0)
(0.149253510698 -1.41793560313e-06 0)
(0.149253504167 -1.49370002585e-06 0)
(0.149253497986 -1.57240836005e-06 0)
(0.149253492138 -1.65415228251e-06 0)
(0.149253486715 -1.73900336258e-06 0)
(0.149253481993 -1.82695982142e-06 0)
(0.149253478422 -1.91792554611e-06 0)
(0.149253476443 -2.01177787307e-06 0)
(0.14925347625 -2.10846321548e-06 0)
(0.149253477915 -2.20793528142e-06 0)
(0.149253481814 -2.30998230188e-06 0)
(0.149253488688 -2.41412312087e-06 0)
(0.149253499848 -2.51988642294e-06 0)
(0.149253516773 -2.62725080989e-06 0)
(0.149253540539 -2.73627624474e-06 0)
(0.149253572535 -2.84707468984e-06 0)
(0.149253614366 -2.96003117856e-06 0)
(0.149253667894 -3.07528080289e-06 0)
(0.149253736137 -3.19273405162e-06 0)
(0.149253823185 -3.31256768638e-06 0)
(0.14925393383 -3.43560093166e-06 0)
(0.149254073217 -3.56415133815e-06 0)
(0.149254247352 -3.70407803315e-06 0)
(0.149254465482 -3.86154009419e-06 0)
(0.149254738035 -4.03118149239e-06 0)
(0.149255076703 -4.21053087748e-06 0)
(0.149255497135 -4.39959878558e-06 0)
(0.149256018891 -4.59924117679e-06 0)
(0.149256665975 -4.81060604898e-06 0)
(0.149257468179 -5.03480894348e-06 0)
(0.149258462517 -5.27313512807e-06 0)
(0.149259694367 -5.52731254109e-06 0)
(0.149261219573 -5.79961659696e-06 0)
(0.149263107282 -6.0931561817e-06 0)
(0.149265444185 -6.41327363717e-06 0)
(0.149268346625 -6.77463049127e-06 0)
(0.149271979684 -7.22975839974e-06 0)
(0.149276480728 -7.90027117061e-06 0)
(0.14928201087 -8.74447601034e-06 0)
(0.149288837035 -9.71858799975e-06 0)
(0.149297286211 -1.08150410966e-05 0)
(0.149307749948 -1.20437740377e-05 0)
(0.149320708842 -1.34232015202e-05 0)
(0.149336757278 -1.49781664955e-05 0)
(0.149356631969 -1.6739903864e-05 0)
(0.149381247019 -1.87474071872e-05 0)
(0.149411736859 -2.10494985717e-05 0)
(0.149449509875 -2.37073113607e-05 0)
(0.149496315724 -2.67980108773e-05 0)
(0.149554329155 -3.04197127542e-05 0)
(0.14962625548 -3.46967980349e-05 0)
(0.149715464666 -3.97865278569e-05 0)
(0.149826161216 -4.58886653481e-05 0)
(0.149963599941 -5.32579018459e-05 0)
(0.150134363274 -6.22191547717e-05 0)
(0.150346720834 -7.31885603563e-05 0)
(0.150611098246 -8.67021268155e-05 0)
(0.150940696349 -0.000103453474107 0)
(0.151352321943 -0.000124345693171 0)
(0.151867515546 -0.000150562806118 0)
(0.152514109056 -0.000183666859483 0)
(0.153328434061 -0.000225733853529 0)
(0.154358559888 -0.000279561368027 0)
(0.155669299141 -0.000349076140214 0)
(0.157350733338 -0.000440500642441 0)
(0.159535531009 -0.000566660523955 0)
(0.162440522511 -0.000763572830347 0)
(0.166471884876 -0.00115130294959 0)
(0.172553348689 -0.00215528442309 0)
(0.183453686088 -0.00535489708422 0)
(0.207496754182 -0.016703165449 0)
(0.260446494837 -0.0580305484766 0)
(0.977201175306 0.296997120257 0)
(0.96268746143 0.25038726956 0)
(0.820646030185 0.158581012069 0)
(0.697824895361 0.095799347357 0)
(0.610491668031 0.0579132759591 0)
(0.549133317985 0.0359038515318 0)
(0.506705989641 0.0229309367023 0)
(0.477662025203 0.0149788789852 0)
(0.457815304662 0.00990973149804 0)
(0.444277680129 0.0065833090051 0)
(0.435087230379 0.00436198650057 0)
(0.428895558943 0.00286682608986 0)
(0.424768040195 0.00185971996773 0)
(0.422054230635 0.00118457187103 0)
(0.420301048574 0.000736110150018 0)
(0.419193675423 0.000442158486357 0)
(0.418514606289 0.000252859182103 0)
(0.418114830362 0.000133738814346 0)
(0.417893372151 6.10525438923e-05 0)
(0.41778272929 1.85781810551e-05 0)
(0.417738471133 -4.63361126691e-06 0)
(0.417731933392 -1.60093588303e-05 0)
(0.417745149379 -2.03057888318e-05 0)
(0.417767172902 -2.06088012027e-05 0)
(0.417791622345 -1.88557954665e-05 0)
(0.417815036532 -1.62214635663e-05 0)
(0.417835755628 -1.33840347303e-05 0)
(0.417853187399 -1.07065422892e-05 0)
(0.417867336059 -8.35830688254e-06 0)
(0.417878507769 -6.39461442172e-06 0)
(0.417887133795 -4.80796049258e-06 0)
(0.417893668933 -3.55961083789e-06 0)
(0.417898537493 -2.59839438073e-06 0)
(0.417902109085 -1.87167095835e-06 0)
(0.41790469145 -1.33095720782e-06 0)
(0.4179065324 -9.34264353018e-07 0)
(0.41790782646 -6.46877279765e-07 0)
(0.417908723159 -4.41116140434e-07 0)
(0.417909335191 -2.95457532152e-07 0)
(0.417909745853 -1.93598094287e-07 0)
(0.417910015479 -1.23556461208e-07 0)
(0.41791018701 -7.70397597134e-08 0)
(0.417910291811 -4.88811724486e-08 0)
(0.417910353112 -3.37754904305e-08 0)
(0.417910386307 -2.63351245344e-08 0)
(0.417910400924 -2.30705253297e-08 0)
(0.417910403721 -2.14400844877e-08 0)
(0.417910400171 -2.00685354197e-08 0)
(0.417910393538 -1.93339946107e-08 0)
(0.41791038519 -1.95712669346e-08 0)
(0.417910376072 -2.05415069802e-08 0)
(0.417910366829 -2.19162364803e-08 0)
(0.417910357787 -2.36147625471e-08 0)
(0.417910349001 -2.55507145485e-08 0)
(0.417910340306 -2.77312954374e-08 0)
(0.417910331417 -3.02077104602e-08 0)
(0.417910322125 -3.29227161464e-08 0)
(0.417910312385 -3.57907477236e-08 0)
(0.417910302227 -3.87558059204e-08 0)
(0.417910291732 -4.17858024991e-08 0)
(0.417910280975 -4.48494051707e-08 0)
(0.417910269898 -4.80039615733e-08 0)
(0.41791025832 -5.13630044345e-08 0)
(0.417910246065 -5.49879030578e-08 0)
(0.417910233052 -5.88365560834e-08 0)
(0.417910219279 -6.27939171926e-08 0)
(0.417910204831 -6.6736827409e-08 0)
(0.41791018981 -7.06056001207e-08 0)
(0.417910174298 -7.44311115924e-08 0)
(0.41791015839 -7.83593891866e-08 0)
(0.417910142096 -8.24773351671e-08 0)
(0.41791012533 -8.69244231402e-08 0)
(0.417910107935 -9.17757240048e-08 0)
(0.417910089683 -9.7079874975e-08 0)
(0.417910070395 -1.02858311886e-07 0)
(0.417910050106 -1.09074699673e-07 0)
(0.417910029102 -1.15592915228e-07 0)
(0.417910007744 -1.22267072869e-07 0)
(0.417909986263 -1.29048435324e-07 0)
(0.417909964635 -1.36000963104e-07 0)
(0.417909942583 -1.43253431895e-07 0)
(0.417909919761 -1.50926621148e-07 0)
(0.417909895996 -1.59057525186e-07 0)
(0.417909871435 -1.67580924941e-07 0)
(0.417909846489 -1.76390494229e-07 0)
(0.417909821622 -1.85421877313e-07 0)
(0.417909797154 -1.94705567897e-07 0)
(0.41790977323 -2.04349564163e-07 0)
(0.417909749911 -2.14487805041e-07 0)
(0.417909727264 -2.25271439688e-07 0)
(0.417909705393 -2.36876784496e-07 0)
(0.417909684488 -2.49475288796e-07 0)
(0.417909664958 -2.63166007518e-07 0)
(0.417909647521 -2.77900258808e-07 0)
(0.417909633113 -2.93548789036e-07 0)
(0.417909622604 -3.10149384327e-07 0)
(0.41790961666 -3.27999966096e-07 0)
(0.417909616101 -3.47469658641e-07 0)
(0.417909622395 -3.69057545825e-07 0)
(0.417909637483 -3.93836086378e-07 0)
(0.417909663854 -4.23598793354e-07 0)
(0.417909704402 -4.5747932284e-07 0)
(0.417909762068 -4.95310720867e-07 0)
(0.417909840341 -5.37498219538e-07 0)
(0.417909943744 -5.85120927017e-07 0)
(0.417910078178 -6.38992172818e-07 0)
(0.41791025121 -6.99576662886e-07 0)
(0.417910471893 -7.6745354746e-07 0)
(0.417910750283 -8.42979355452e-07 0)
(0.417911095828 -9.25329429798e-07 0)
(0.417911521743 -1.00967676265e-06 0)
(0.417912060612 -1.09040091992e-06 0)
(0.417912746408 -1.17932757163e-06 0)
(0.417913606578 -1.28307970112e-06 0)
(0.417914679084 -1.40652156749e-06 0)
(0.417916013635 -1.55548046985e-06 0)
(0.417917672444 -1.73723915584e-06 0)
(0.417919732734 -1.9603884548e-06 0)
(0.417922289849 -2.23574026746e-06 0)
(0.41792546116 -2.57699725128e-06 0)
(0.417929391595 -3.00117376381e-06 0)
(0.417934260129 -3.52947047186e-06 0)
(0.417940286112 -4.18907296728e-06 0)
(0.417947732102 -5.01888294133e-06 0)
(0.417956910745 -6.09256547393e-06 0)
(0.417968277505 -7.54948142405e-06 0)
(0.417982417919 -9.4277151521e-06 0)
(0.417999979403 -1.17770071232e-05 0)
(0.418021758185 -1.46896864436e-05 0)
(0.418048751659 -1.82926184125e-05 0)
(0.418082199649 -2.27469030542e-05 0)
(0.418123639876 -2.82529611542e-05 0)
(0.418174979223 -3.50585302089e-05 0)
(0.418238582783 -4.34702931883e-05 0)
(0.41831738489 -5.3868381339e-05 0)
(0.418415027452 -6.67242554775e-05 0)
(0.418536032944 -8.26244597868e-05 0)
(0.418686021878 -0.00010230125696 0)
(0.418871986605 -0.000126670417479 0)
(0.419102636234 -0.000156879798985 0)
(0.419388833863 -0.000194373990027 0)
(0.419744155102 -0.000240978711687 0)
(0.420185604802 -0.000299011485374 0)
(0.420734544327 -0.000371431946719 0)
(0.42141790519 -0.000462047705392 0)
(0.422269797141 -0.000575798574612 0)
(0.423333673279 -0.000719162478973 0)
(0.424665301182 -0.00090075173069 0)
(0.426336940496 -0.00113221581743 0)
(0.428443418063 -0.00142968221545 0)
(0.431111351467 -0.00181623293096 0)
(0.434513918465 -0.0023266031027 0)
(0.438896056395 -0.00301721681202 0)
(0.444621104671 -0.00399047724637 0)
(0.452263216583 -0.00545942181984 0)
(0.462784384743 -0.00792594622632 0)
(0.477868924407 -0.0126738517347 0)
(0.500776695174 -0.0231867816774 0)
(0.537825525135 -0.0491425323808 0)
(0.592936813532 -0.11364829893 0)
(1.0338703902 0.239240963071 0)
(1.08314081654 0.293634379748 0)
(1.03294437461 0.239131934263 0)
(0.954408207259 0.17453901918 0)
(0.880112584158 0.121551463816 0)
(0.818677617372 0.0832335936144 0)
(0.771466794656 0.0568258124299 0)
(0.73669157485 0.0388125726002 0)
(0.711672102295 0.0264913170347 0)
(0.693953129321 0.0180235754292 0)
(0.681568201725 0.0121876188743 0)
(0.673018599791 0.00816650211845 0)
(0.66719223006 0.00540556467343 0)
(0.663277746669 0.00352226171811 0)
(0.660690308082 0.00224961106321 0)
(0.659012733145 0.00140002742278 0)
(0.657950525434 0.000841456049169 0)
(0.657298071759 0.000481124157558 0)
(0.656913527784 0.000254196308203 0)
(0.656700336726 0.000115713632479 0)
(0.656593728172 3.47995388275e-05 0)
(0.65655101395 -9.46208040591e-06 0)
(0.656544670548 -3.10067948912e-05 0)
(0.656557367901 -3.90712392902e-05 0)
(0.656578550775 -3.95443371071e-05 0)
(0.656602073855 -3.61174426159e-05 0)
(0.656624603231 -3.10285376252e-05 0)
(0.656644540457 -2.55674482976e-05 0)
(0.656661314995 -2.04229733156e-05 0)
(0.656674930254 -1.59152439096e-05 0)
(0.656685680692 -1.21477607797e-05 0)
(0.656693981277 -9.10460928864e-06 0)
(0.656700269393 -6.71064239904e-06 0)
(0.656704953233 -4.86763966754e-06 0)
(0.656708388539 -3.4748747369e-06 0)
(0.656710871474 -2.43966002658e-06 0)
(0.656712640544 -1.68199956587e-06 0)
(0.656713882992 -1.13582229342e-06 0)
(0.656714742655 -7.48266100382e-07 0)
(0.656715327937 -4.78025673986e-07 0)
(0.656715719231 -2.93353336648e-07 0)
(0.656715975284 -1.69934536618e-07 0)
(0.656716138494 -8.91276840328e-08 0)
(0.656716238992 -3.76275044862e-08 0)
(0.656716297902 -6.18175203763e-09 0)
(0.656716330089 1.22017878416e-08 0)
(0.656716345393 2.28775548507e-08 0)
(0.656716349146 2.93987774202e-08 0)
(0.656716344739 3.34405559807e-08 0)
(0.656716335815 3.66434771687e-08 0)
(0.656716325056 3.96529010102e-08 0)
(0.656716313675 4.27121048394e-08 0)
(0.656716302175 4.59795884799e-08 0)
(0.65671629073 4.9473856471e-08 0)
(0.656716279222 5.31456433693e-08 0)
(0.656716267536 5.69895200893e-08 0)
(0.65671625557 6.09799904923e-08 0)
(0.656716243183 6.52082053237e-08 0)
(0.656716230313 6.97602703791e-08 0)
(0.656716217008 7.4753652988e-08 0)
(0.656716203293 8.01876222154e-08 0)
(0.656716189054 8.59957070765e-08 0)
(0.656716174143 9.20982175352e-08 0)
(0.656716158466 9.85372992692e-08 0)
(0.656716142012 1.05454580194e-07 0)
(0.656716124788 1.13014848769e-07 0)
(0.656716106795 1.21394227512e-07 0)
(0.656716088021 1.30708520289e-07 0)
(0.656716068437 1.40961254663e-07 0)
(0.656716048095 1.52004203642e-07 0)
(0.656716027037 1.63532176729e-07 0)
(0.656716005228 1.75375691879e-07 0)
(0.656715982606 1.87503938242e-07 0)
(0.656715959013 2.00001938187e-07 0)
(0.6567159343 2.13028899862e-07 0)
(0.656715908512 2.26779667656e-07 0)
(0.656715881909 2.41412787771e-07 0)
(0.656715854797 2.57004220364e-07 0)
(0.656715827339 2.73542454951e-07 0)
(0.65671579946 2.90949882278e-07 0)
(0.656715770912 3.0914790899e-07 0)
(0.656715741455 3.28137989605e-07 0)
(0.656715711048 3.480463685e-07 0)
(0.6567156799 3.69096063512e-07 0)
(0.656715648388 3.91491404775e-07 0)
(0.656715616894 4.15302858132e-07 0)
(0.656715585692 4.40445961514e-07 0)
(0.656715554954 4.6675384787e-07 0)
(0.656715524816 4.94053583477e-07 0)
(0.656715495438 5.22182239818e-07 0)
(0.656715467066 5.50997859766e-07 0)
(0.65671544011 5.80432724753e-07 0)
(0.656715415269 6.10562803973e-07 0)
(0.656715393525 6.41618262236e-07 0)
(0.656715375921 6.73771976558e-07 0)
(0.656715363363 7.06876743839e-07 0)
(0.656715356725 7.40592505462e-07 0)
(0.656715357034 7.74726839031e-07 0)
(0.656715365444 8.09367494025e-07 0)
(0.656715383374 8.45126066911e-07 0)
(0.656715416337 8.83588589345e-07 0)
(0.656715470478 9.22648572064e-07 0)
(0.656715549362 9.60535136243e-07 0)
(0.656715657555 9.95810623497e-07 0)
(0.656715801509 1.02671430844e-06 0)
(0.656715990017 1.05132635628e-06 0)
(0.656716234281 1.06748255766e-06 0)
(0.656716548352 1.07242871794e-06 0)
(0.656716950239 1.06312739695e-06 0)
(0.656717463918 1.03670334997e-06 0)
(0.656718117713 9.94084839123e-07 0)
(0.65671893239 9.36912663404e-07 0)
(0.656719937535 8.49011459842e-07 0)
(0.656721185391 7.17156644098e-07 0)
(0.656722736003 5.27995886068e-07 0)
(0.656724661303 2.65208098517e-07 0)
(0.656727050245 -9.15490424731e-08 0)
(0.656730012941 -5.67481144901e-07 0)
(0.656733685254 -1.19423880113e-06 0)
(0.656738235062 -2.01123932088e-06 0)
(0.656743870229 -3.06721171011e-06 0)
(0.656750848532 -4.42253313982e-06 0)
(0.656759490461 -6.15216379393e-06 0)
(0.656770193441 -8.34877337455e-06 0)
(0.65678344321 -1.11210004493e-05 0)
(0.656799843135 -1.45874253565e-05 0)
(0.656820144994 -1.89491534661e-05 0)
(0.656845277527 -2.44490275441e-05 0)
(0.656876396622 -3.13751947169e-05 0)
(0.656914934016 -4.00817371473e-05 0)
(0.656962660715 -5.10075539812e-05 0)
(0.657021770008 -6.46966674614e-05 0)
(0.657094979958 -8.18234844192e-05 0)
(0.657185660646 -0.000103224863841 0)
(0.657297992812 -0.000129939856626 0)
(0.657437164411 -0.00016325952843 0)
(0.657609615683 -0.000204790299244 0)
(0.657823347377 -0.000256534447728 0)
(0.658088308174 -0.000320992986036 0)
(0.658416881342 -0.000401298288834 0)
(0.65882450049 -0.000501386012552 0)
(0.659330434106 -0.000626220149735 0)
(0.659958788386 -0.000782091781193 0)
(0.660739799258 -0.000977021835741 0)
(0.661711516397 -0.00122131185661 0)
(0.662922021546 -0.00152831076581 0)
(0.66443239274 -0.00191551273623 0)
(0.666320740663 -0.00240617903913 0)
(0.668687827879 -0.00303181882924 0)
(0.671665114283 -0.00383616843382 0)
(0.675426674581 -0.00488196992939 0)
(0.680207526279 -0.00626333593281 0)
(0.686332778498 -0.00812998751702 0)
(0.694265442449 -0.0107379441034 0)
(0.704685702766 -0.0145612540603 0)
(0.718607554751 -0.020542874476 0)
(0.737494833925 -0.0306363859627 0)
(0.763330267243 -0.0489035882262 0)
(0.79814533223 -0.0835529321908 0)
(0.838203134428 -0.148204352565 0)
(1.03384128574 0.171306948246 0)
(1.10231584863 0.275556745994 0)
(1.11663620689 0.266312373035 0)
(1.09207924703 0.219892603349 0)
(1.05195419833 0.168210316981 0)
(1.01022221566 0.123615336094 0)
(0.973507719978 0.0888850595179 0)
(0.943885948897 0.0630494615307 0)
(0.921162801991 0.0442607972423 0)
(0.904299825614 0.0307744337424 0)
(0.892086138483 0.0211830145252 0)
(0.88341123726 0.0144172981706 0)
(0.877355066096 0.00968544190392 0)
(0.873196219496 0.00640758732371 0)
(0.870388067672 0.0041617238152 0)
(0.868526262371 0.00264232215632 0)
(0.867317305607 0.00162947800948 0)
(0.866551592895 0.000966026207378 0)
(0.866081666271 0.000540574423631 0)
(0.865805309127 0.000274928610878 0)
(0.865652734193 0.000114793091936 0)
(0.865577100897 2.29573525033e-05 0)
(0.865547487376 -2.57247779511e-05 0)
(0.865543949131 -4.80459689066e-05 0)
(0.865553996331 -5.49267322288e-05 0)
(0.865569999285 -5.3328654493e-05 0)
(0.865587536401 -4.75758364729e-05 0)
(0.865604225998 -4.02484732773e-05 0)
(0.865618938926 -3.28011244048e-05 0)
(0.865631285237 -2.5982875633e-05 0)
(0.8656412863 -2.01155640132e-05 0)
(0.86564917034 -1.52745367539e-05 0)
(0.865655249192 -1.1403030963e-05 0)
(0.865659848118 -8.38242042093e-06 0)
(0.865663269239 -6.07372692237e-06 0)
(0.865665775016 -4.34049998341e-06 0)
(0.865667583478 -3.06012886575e-06 0)
(0.865668869976 -2.12837667587e-06 0)
(0.865669771914 -1.46004258001e-06 0)
(0.865670394603 -9.87466297591e-07 0)
(0.865670817279 -6.5825277725e-07 0)
(0.865671098572 -4.32682350657e-07 0)
(0.865671281214 -2.81106751137e-07 0)
(0.865671395981 -1.81626648619e-07 0)
(0.865671464756 -1.1806584629e-07 0)
(0.865671502897 -7.87800990285e-08 0)
(0.865671521033 -5.58061304822e-08 0)
(0.865671526489 -4.35819392042e-08 0)
(0.86567152444 -3.76363278004e-08 0)
(0.865671517823 -3.50685377458e-08 0)
(0.865671508065 -3.48043623277e-08 0)
(0.865671496444 -3.64162522278e-08 0)
(0.865671483761 -3.94406877775e-08 0)
(0.86567147032 -4.34906635168e-08 0)
(0.865671456193 -4.82722362142e-08 0)
(0.865671441274 -5.34902615195e-08 0)
(0.865671425544 -5.89985125842e-08 0)
(0.865671409121 -6.46585621876e-08 0)
(0.865671392116 -7.03811646078e-08 0)
(0.865671374566 -7.61462676532e-08 0)
(0.865671356395 -8.21141721248e-08 0)
(0.865671337453 -8.84550627556e-08 0)
(0.865671317605 -9.52511591957e-08 0)
(0.865671296818 -1.02455475491e-07 0)
(0.86567127507 -1.09904484589e-07 0)
(0.865671252352 -1.17409414121e-07 0)
(0.865671228684 -1.24819985013e-07 0)
(0.865671204024 -1.32115696442e-07 0)
(0.865671178243 -1.39422197178e-07 0)
(0.865671151189 -1.46959567783e-07 0)
(0.865671122857 -1.55059625476e-07 0)
(0.865671093383 -1.6388402581e-07 0)
(0.865671062818 -1.73472017039e-07 0)
(0.865671031078 -1.83789924417e-07 0)
(0.865670998045 -1.94737490493e-07 0)
(0.86567096374 -2.06201728088e-07 0)
(0.865670928358 -2.18150427776e-07 0)
(0.865670892144 -2.30644866971e-07 0)
(0.865670855223 -2.43794909725e-07 0)
(0.86567081753 -2.57706259167e-07 0)
(0.865670778883 -2.72426835577e-07 0)
(0.865670739146 -2.87926234573e-07 0)
(0.865670698374 -3.04113320481e-07 0)
(0.865670656815 -3.2087964886e-07 0)
(0.865670614806 -3.38186951849e-07 0)
(0.865670572649 -3.56141154711e-07 0)
(0.865670530571 -3.74991874026e-07 0)
(0.86567048876 -3.95077038813e-07 0)
(0.865670447419 -4.16756535343e-07 0)
(0.86567040683 -4.40366606269e-07 0)
(0.865670367408 -4.6619658236e-07 0)
(0.86567032979 -4.94475388458e-07 0)
(0.865670294939 -5.25376533098e-07 0)
(0.865670264037 -5.59083938724e-07 0)
(0.865670238199 -5.95944119257e-07 0)
(0.865670218452 -6.3654495043e-07 0)
(0.865670206099 -6.81570573839e-07 0)
(0.865670203101 -7.31639463846e-07 0)
(0.865670212573 -7.87169703799e-07 0)
(0.865670238975 -8.48009048508e-07 0)
(0.86567028451 -9.13098536839e-07 0)
(0.865670351481 -9.85054938877e-07 0)
(0.865670445907 -1.06646327289e-06 0)
(0.865670574367 -1.15973272609e-06 0)
(0.865670744802 -1.26745546577e-06 0)
(0.865670967512 -1.39270699611e-06 0)
(0.865671255227 -1.53942882763e-06 0)
(0.865671623473 -1.71300008386e-06 0)
(0.865672091024 -1.92054568542e-06 0)
(0.865672681304 -2.17247602654e-06 0)
(0.865673424364 -2.48414105542e-06 0)
(0.865674355805 -2.87430886011e-06 0)
(0.86567551956 -3.35237364317e-06 0)
(0.865676971083 -3.93570275463e-06 0)
(0.86567877746 -4.6489244406e-06 0)
(0.865681021944 -5.52284379919e-06 0)
(0.865683808151 -6.59539376998e-06 0)
(0.865687264419 -7.91362070406e-06 0)
(0.865691549332 -9.53601950874e-06 0)
(0.865696859103 -1.15352447649e-05 0)
(0.865703436716 -1.40011853416e-05 0)
(0.865711583379 -1.70450549379e-05 0)
(0.865721672769 -2.0805528408e-05 0)
(0.865734167874 -2.54577708515e-05 0)
(0.865749639669 -3.12230845999e-05 0)
(0.865768795166 -3.83702629125e-05 0)
(0.865792510193 -4.72276175319e-05 0)
(0.86582186815 -5.81945540463e-05 0)
(0.865858213837 -7.17685046855e-05 0)
(0.865903213879 -8.8571631974e-05 0)
(0.865958932041 -0.000109378714158 0)
(0.866027924715 -0.000135152686794 0)
(0.866113359318 -0.000167089798282 0)
(0.866219161912 -0.000206675951069 0)
(0.866350201183 -0.000255757952338 0)
(0.866512516386 -0.00031663367995 0)
(0.866713601254 -0.000392165060693 0)
(0.866962759488 -0.000485920767755 0)
(0.867271549979 -0.000602359151352 0)
(0.867654345323 -0.000747063001148 0)
(0.868129035692 -0.000927041859238 0)
(0.868717919804 -0.00115112713047 0)
(0.869448836401 -0.0014304946208 0)
(0.870356610949 -0.00177936351948 0)
(0.871484923068 -0.00221594730364 0)
(0.872888735996 -0.00276377154632 0)
(0.874637489984 -0.0034535439982 0)
(0.876819362753 -0.0043258875291 0)
(0.879547043691 -0.00543546651572 0)
(0.882965693521 -0.00685746797327 0)
(0.887264111833 -0.00869827209472 0)
(0.892690584827 -0.0111139313557 0)
(0.899575266757 -0.0143437789964 0)
(0.908360587929 -0.0187739235954 0)
(0.919637670039 -0.0250600636985 0)
(0.934167600885 -0.0343636403196 0)
(0.95280454757 -0.0487722167141 0)
(0.976159519672 -0.0719164143804 0)
(1.00357486624 -0.1095341679 0)
(1.02929186608 -0.168229059073 0)
(1.02388346303 0.119321985344 0)
(1.08875436423 0.231514423507 0)
(1.13660483063 0.252868940675 0)
(1.15406272801 0.228905047647 0)
(1.15000112504 0.188337386346 0)
(1.13537623828 0.146577291903 0)
(1.11757777785 0.110164820301 0)
(1.10059199799 0.0808376059104 0)
(1.08612241316 0.0582501999071 0)
(1.07458761936 0.0413417851124 0)
(1.06578679725 0.0289362825208 0)
(1.05928156698 0.0199770197353 0)
(1.05459132733 0.0135949297966 0)
(1.0512802688 0.0091074270464 0)
(1.048987362 0.00599313283724 0)
(1.04742905257 0.00386144141462 0)
(1.04639045997 0.00242413724228 0)
(1.0457129926 0.00147134938151 0)
(1.04528206147 0.000852137760065 0)
(1.0450163795 0.000459265085126 0)
(1.04485925635 0.000217491122497 0)
(1.04477182602 7.47190841715e-05 0)
(1.04472784434 -4.64556304971e-06 0)
(1.04470997803 -4.44459001874e-05 0)
(1.04470705164 -6.05363943608e-05 0)
(1.04471197435 -6.30938129024e-05 0)
(1.04472041471 -5.85443688557e-05 0)
(1.04472985608 -5.08114525162e-05 0)
(1.04473893054 -4.218000524e-05 0)
(1.04474697766 -3.38924598375e-05 0)
(1.04475375737 -2.65473765176e-05 0)
(1.0447592653 -2.03612246342e-05 0)
(1.04476361703 -1.53365212618e-05 0)
(1.04476697813 -1.13668598172e-05 0)
(1.04476952434 -8.30043936803e-06 0)
(1.0447714204 -5.97650413065e-06 0)
(1.04477281024 -4.24456695562e-06 0)
(1.04477381387 -2.9733220485e-06 0)
(1.044774528 -2.0534706854e-06 0)
(1.04477502846 -1.39705484803e-06 0)
(1.04477537341 -9.35122592241e-07 0)
(1.04477560672 -6.14793908366e-07 0)
(1.04477576101 -3.96058904729e-07 0)
(1.04477586021 -2.49019626172e-07 0)
(1.04477592159 -1.51577369202e-07 0)
(1.04477595743 -8.77915144622e-08 0)
(1.04477597614 -4.65455783678e-08 0)
(1.04477598303 -2.03237097802e-08 0)
(1.04477598157 -4.37653141667e-09 0)
(1.04477597429 4.39536740005e-09 0)
(1.04477596318 8.81853633807e-09 0)
(1.04477594984 1.09122156433e-08 0)
(1.04477593534 1.17724236702e-08 0)
(1.04477592016 1.19042855826e-08 0)
(1.04477590438 1.15417846189e-08 0)
(1.04477588799 1.09174845369e-08 0)
(1.0447758709 1.03732352577e-08 0)
(1.04477585309 1.0123133256e-08 0)
(1.0447758345 1.02672819856e-08 0)
(1.04477581504 1.07091433308e-08 0)
(1.04477579461 1.12876359354e-08 0)
(1.04477577316 1.1856859322e-08 0)
(1.04477575068 1.24083550458e-08 0)
(1.04477572725 1.30173545626e-08 0)
(1.04477570292 1.38690809199e-08 0)
(1.04477567765 1.52057525811e-08 0)
(1.04477565129 1.72076124477e-08 0)
(1.04477562362 1.9807996722e-08 0)
(1.04477559441 2.27731195936e-08 0)
(1.04477556356 2.58155211343e-08 0)
(1.04477553118 2.88069879397e-08 0)
(1.04477549748 3.1723292028e-08 0)
(1.04477546257 3.46275927011e-08 0)
(1.04477542637 3.76307254181e-08 0)
(1.04477538877 4.08636899677e-08 0)
(1.04477534975 4.4403190322e-08 0)
(1.04477530941 4.82177357488e-08 0)
(1.04477526795 5.21965718189e-08 0)
(1.04477522548 5.6221838564e-08 0)
(1.04477518201 6.0239352192e-08 0)
(1.04477513742 6.42986471407e-08 0)
(1.04477509161 6.85367638758e-08 0)
(1.04477504464 7.31144025704e-08 0)
(1.04477499672 7.81393411325e-08 0)
(1.04477494809 8.35988752268e-08 0)
(1.04477489894 8.93457207634e-08 0)
(1.04477484941 9.51351101821e-08 0)
(1.04477479966 1.00674824106e-07 0)
(1.04477474991 1.05678379343e-07 0)
(1.04477470049 1.09903225941e-07 0)
(1.04477465189 1.13169122387e-07 0)
(1.04477460479 1.1535735736e-07 0)
(1.04477456016 1.16302571894e-07 0)
(1.04477451911 1.15614713569e-07 0)
(1.04477448271 1.1263158527e-07 0)
(1.04477445194 1.06484240821e-07 0)
(1.04477442809 9.61898533229e-08 0)
(1.04477441292 8.05463077988e-08 0)
(1.04477440887 5.79309401825e-08 0)
(1.04477441942 2.59463085331e-08 0)
(1.04477444889 -1.92586158878e-08 0)
(1.04477450204 -7.90917811957e-08 0)
(1.04477458436 -1.56494329668e-07 0)
(1.04477470244 -2.55300755768e-07 0)
(1.0447748647 -3.80016630109e-07 0)
(1.04477508197 -5.36006992186e-07 0)
(1.04477536745 -7.30065610272e-07 0)
(1.04477573734 -9.70747235044e-07 0)
(1.04477621135 -1.26856173145e-06 0)
(1.04477681398 -1.63598610107e-06 0)
(1.04477757579 -2.08835153054e-06 0)
(1.04477853313 -2.64538433606e-06 0)
(1.04477973109 -3.33096560915e-06 0)
(1.04478122651 -4.17616661253e-06 0)
(1.04478308949 -5.21908121306e-06 0)
(1.04478540704 -6.50610762297e-06 0)
(1.04478828698 -8.09410692287e-06 0)
(1.04479186252 -1.00532971994e-05 0)
(1.04479629815 -1.24706638421e-05 0)
(1.04480179752 -1.54540407992e-05 0)
(1.04480861326 -1.91371752192e-05 0)
(1.04481705842 -2.36859158835e-05 0)
(1.0448275207 -2.93063666131e-05 0)
(1.04484047965 -3.62555225428e-05 0)
(1.04485652748 -4.48542054846e-05 0)
(1.04487639762 -5.5498762208e-05 0)
(1.0449009985 -6.86782712313e-05 0)
(1.04493145415 -8.49939875644e-05 0)
(1.04496915798 -0.000105190147527 0)
(1.04501583679 -0.000130190479048 0)
(1.04507362903 -0.00016114126584 0)
(1.04514518305 -0.000199465374219 0)
(1.04523377963 -0.000246929112794 0)
(1.0453434839 -0.00030572495579 0)
(1.04547933393 -0.000378576325724 0)
(1.04564757476 -0.000468869899981 0)
(1.04585594988 -0.000580821273295 0)
(1.04611406393 -0.000719684081735 0)
(1.04643383499 -0.000892016444814 0)
(1.04683006013 -0.0011060210348 0)
(1.04732112354 -0.00137198198466 0)
(1.04792988494 -0.00170283334333 0)
(1.04868479737 -0.0021149051095 0)
(1.04962131937 -0.00262891221465 0)
(1.05078370908 -0.00327128781284 0)