/*--------------------------------*- C++ -*----------------------------------*\
| =========                 |                                                 |
| \\      /  F ield         | OpenFOAM: The Open Source CFD Toolbox           |
|  \\    /   O peration     | Version:  2106                                  |
|   \\  /    A nd           | Website:  www.openfoam.com                      |
|    \\/     M anipulation  |                                                 |
\*---------------------------------------------------------------------------*/
FoamFile
{
    version     2.0;
    format      ascii;
    arch        "LSB;label=32;scalar=64";
    class       volScalarField;
    location    "0.3";
    object      p;
}
// * * * * * * * * * * * * * * * * * * * * * * * * * * * * * * * * * * * * * //

dimensions      [0 2 -2 0 0 0 0];

internalField   nonuniform List<scalar> 
9600
(
2.25149718935
-0.646513827165
-1.55074428442
-1.93635584669
-2.15568747745
-2.29563060166
-2.39953600146
-2.48708566238
-2.56658483121
-2.64197467162
-2.71534810403
-2.7878563453
-2.86012922209
-2.93249767837
-3.00511834927
-3.0780468301
-3.15128291572
-3.22479829083
-3.29855256571
-3.37250279179
-3.44660833888
-3.52083489747
-3.59515212873
-3.66953589847
-3.74396697933
-3.81843037936
-3.89291432646
-3.96740975114
-4.0419099066
-4.11640937015
-4.19090381617
-4.26539015538
-4.33986575526
-4.41432820384
-4.48877563801
-4.56320622505
-4.63761794196
-4.71200894519
-4.78637728103
-4.86072068714
-4.93503691601
-5.00932364768
-5.08357824049
-5.15779789782
-5.23197952298
-5.30611977733
-5.38021505073
-5.45426151658
-5.52825516497
-5.60219166176
-5.67606630513
-5.74987413846
-5.82360980864
-5.89726747974
-5.97084091946
-6.04432346663
-6.11770790868
-6.19098655551
-6.26415121653
-6.33719309248
-6.41010283556
-6.48287054286
-6.55548568735
-6.62793703584
-6.70021268352
-6.77230001089
-6.84418557971
-6.9158551222
-6.9872935116
-7.05848465399
-7.12941152848
-7.20005617352
-7.27039955135
-7.34042163191
-7.41010140956
-7.47941665479
-7.54834385311
-7.61685833869
-7.68493422001
-7.75254423941
-7.81965974907
-7.88625062783
-7.95228523189
-8.01773054137
-8.08255210425
-8.14671367393
-8.21017722633
-8.27290327077
-8.33485066742
-8.39597633939
-8.45623545674
-8.51558148992
-8.57396599087
-8.63133865887
-8.68764737131
-8.74283787641
-8.79685386056
-8.8496373455
-8.9011284122
-8.95126477494
-8.99998218805
-9.04721471045
-9.09289423362
-9.13695064615
-9.17931209858
-9.21990440483
-9.25865135793
-9.29547518285
-9.33029622873
-9.36303304499
-9.39360254877
-9.42191963716
-9.44789744709
-9.47144762
-9.49248018777
-9.51090395424
-9.52662643925
-9.53955359309
-9.54959039246
-9.55664092759
-9.56060784204
-9.56139283259
-9.5588971401
-9.55302115573
-9.54366477297
-9.53072889894
-9.5141113916
-9.49371054072
-9.46942431597
-9.44115100509
-9.40878792371
-9.37223203611
-9.33138056121
-9.28612925716
-9.2363725206
-9.18200477142
-9.12291861016
-9.05900377101
-8.99014762026
-8.91623328139
-8.83713803636
-8.75273261925
-8.66287817363
-8.56742287308
-8.46619880751
-8.35901672771
-8.24565929884
-8.12587226756
-7.99935078121
-7.86572090169
-7.72451325631
-7.5751178851
-7.41671109797
-7.2481310513
-7.06766157546
-6.87271680403
-6.65935952031
-6.42176713282
-6.1605908515
-5.93758274285
0.339956697875
-0.842399161513
-1.45107245478
-1.80509759684
-2.04771447556
-2.21827802814
-2.34635002381
-2.45085266522
-2.54192800743
-2.62520616342
-2.70397861809
-2.78019524547
-2.85501564628
-2.92912795937
-3.00293430195
-3.07666122223
-3.15042810183
-3.22429062738
-3.29826744855
-3.37235679043
-3.44654715157
-3.52082214852
-3.59516526388
-3.66956121825
-3.74399634604
-3.81845931018
-3.89294071081
-3.96743270471
-4.04192926139
-4.11642550481
-4.19091721283
-4.26540128361
-4.3398752191
-4.41433649889
-4.48878308286
-4.56321320854
-4.63762482234
-4.71201590822
-4.78638450125
-4.86072835606
-4.93504514876
-5.00933252879
-5.08358790137
-5.15780836179
-5.23199084691
-5.30613203949
-5.38022834276
-5.4542759025
-5.52827068299
-5.60220842874
-5.67608445976
-5.74989375757
-5.8236310033
-5.89729039859
-5.9708656745
-6.04435016829
-6.11773670102
-6.19101757011
-6.26418457058
-6.33722894686
-6.41014134753
-6.48291185068
-6.55552996214
-6.62798447965
-6.70026349416
-6.77235441792
-6.84424383788
-6.91591745031
-6.98736014798
-7.05855585887
-7.12948751363
-7.20013716283
-7.27048587382
-7.34051363013
-7.41019938222
-7.47952090271
-7.5484546639
-7.61697599521
-7.68505909596
-7.75267675859
-7.81980025896
-7.88639948914
-7.95244292069
-8.01789749087
-8.08272865277
-8.14690023348
-8.21037424733
-8.27311114301
-8.33506985157
-8.39620735451
-8.45647872044
-8.51583746273
-8.57423529698
-8.63162183323
-8.68794480438
-8.74315007017
-8.79718137242
-8.84998064383
-8.90148806548
-8.95164143307
-9.00037632396
-9.04762682964
-9.09332500031
-9.13740056025
-9.17978154754
-9.22039395217
-9.25916157338
-9.29600657014
-9.33084933162
-9.3636082832
-9.39420014673
-9.42253985676
-9.44854066267
-9.47211419608
-9.493170489
-9.51161838412
-9.52736545673
-9.540317617
-9.55037976238
-9.55745604016
-9.56144924183
-9.56226095731
-9.55979240197
-9.55394427121
-9.54461617265
-9.53170691008
-9.51511679005
-9.49474439014
-9.47048818035
-9.44224701226
-9.40991889124
-9.37340112227
-9.3325918398
-9.28738845995
-9.23768662106
-9.18338218564
-9.12437042592
-9.06054394177
-8.9917932782
-8.91800594117
-8.83906430665
-8.75484562459
-8.6652200966
-8.57004699425
-8.46917228856
-8.36242521525
-8.24961264128
-8.13051289017
-8.00486629456
-7.87236257058
-7.7326264407
-7.58519433463
-7.42948455164
-7.26476373361
-7.09011537379
-6.9044926626
-6.70693244066
-6.49635785416
-6.27279997433
-6.05768338357
-0.635885414381
-1.11725473025
-1.5085128434
-1.80012951163
-2.02170351324
-2.1896396898
-2.32174164202
-2.43153023532
-2.52738859178
-2.61453288115
-2.69627460249
-2.77470867193
-2.85115570674
-2.92644518624
-3.00109333825
-3.0754155203
-3.14959848795
-3.22374823427
-3.29792069168
-3.37214132609
-3.44641807853
-3.52074897002
-3.59512732157
-3.66954482237
-3.74399256291
-3.81846238987
-3.89294719169
-3.96744052673
-4.0419371339
-4.11643285124
-4.19092388602
-4.26540718877
-4.33988044112
-4.41434126556
-4.48878749949
-4.56321738777
-4.63762893081
-4.71201997748
-4.78638853041
-4.86073243559
-4.93504935456
-5.00933688612
-5.08359244873
-5.15781316782
-5.23199592993
-5.30613742531
-5.3802341605
-5.45428225116
-5.52827760777
-5.60221597051
-5.67609268281
-5.74990270064
-5.82364070379
-5.89730091806
-5.97087705421
-6.04436242269
-6.11774989256
-6.1910317507
-6.26419977998
-6.33724525111
-6.41015881758
-6.4829305437
-6.55554993555
-6.62800581417
-6.70028630598
-6.7723788343
-6.84426998748
-6.91594544399
-6.98739010457
-7.05858792664
-7.12952180688
-7.20017375254
-7.2705248681
-7.34055515188
-7.41024352385
-7.47956779082
-7.54850447405
-7.61702889922
-7.68511527183
-7.75273638348
-7.81986347131
-7.88646645837
-7.95251390201
-8.01797267992
-8.08280810799
-8.14698406455
-8.21046269275
-8.27320440781
-8.33516808686
-8.39631076559
-8.45658753579
-8.51595191567
-8.57435567552
-8.63174836793
-8.68807759652
-8.74328930926
-8.7973273923
-8.85013364753
-8.90164813236
-8.95180875625
-9.00055110864
-9.04780922916
-9.09351524789
-9.13759884874
-9.17998792695
-9.22060856853
-9.2593846231
-9.29623819728
-9.33108974786
-9.36385775251
-9.39445912928
-9.42280896643
-9.44882027017
-9.47240463202
-9.49347222552
-9.51193179111
-9.52769091641
-9.54065580537
-9.55073126435
-9.55782131646
-9.56182888761
-9.56265565819
-9.56020294236
-9.55437184938
-9.5450628288
-9.53217544962
-9.51560927833
-9.49526333431
-9.47103617162
-9.44282687488
-9.41053436518
-9.37405663854
-9.33329224611
-9.288140105
-9.23849753817
-9.18426166285
-9.12532995704
-9.0615980542
-8.99295984782
-8.91930731971
-8.84052837957
-8.7565066971
-8.66712079612
-8.57224087454
-8.47172696639
-8.36542663447
-8.25317043199
-8.13476788995
-8.0100026305
-7.87862450197
-7.74034289922
-7.59481976645
-7.44166365597
-7.2804360174
-7.11068446617
-6.93205532785
-6.7445740188
-6.54876691972
-6.34572431591
-6.14381302471
-1.18734595581
-1.3736931817
-1.6161401021
-1.83860857709
-2.02579964089
-2.17982767436
-2.30826520044
-2.4185557883
-2.51635005332
-2.60570967681
-2.68948035975
-2.76960667286
-2.84739640459
-2.92371858027
-2.99914349698
-3.07403982547
-3.14864099853
-3.22309124836
-3.2974768037
-3.37184657669
-3.44622617948
-3.52062693947
-3.5950523832
-3.66950063702
-3.74396820434
-3.81845041161
-3.89294267425
-3.9674403555
-4.04193923564
-4.11643596996
-4.19092741108
-4.26541071197
-4.33988373217
-4.41434436857
-4.4887904721
-4.56322023424
-4.63763171899
-4.71202274589
-4.78639126508
-4.86073518357
-4.93505217603
-5.00933980881
-5.08359548387
-5.15781635295
-5.2319992984
-5.30614098574
-5.38023791428
-5.45428626104
-5.52828191737
-5.60222059359
-5.67609767321
-5.74990813556
-5.82364661981
-5.89730736705
-5.97088407942
-6.04437005068
-6.1177581412
-6.19104063246
-6.2642092888
-6.33725537927
-6.4101695956
-6.48294200566
-6.55556209454
-6.62801876145
-6.70030015184
-6.77239365639
-6.84428586419
-6.91596246193
-6.98740830933
-7.05860741436
-7.12954268709
-7.20019606874
-7.27054863979
-7.34058042818
-7.41027034185
-7.47959619369
-7.54853458795
-7.61706089014
-7.68514926153
-7.75277248638
-7.81990181943
-7.88650714381
-7.95255700545
-8.01801829972
-8.08285627093
-8.14703478725
-8.21051613654
-8.2732607469
-8.33522737455
-8.3963731235
-8.45665320988
-8.5160210718
-8.57442841957
-8.63182486315
-8.68815796381
-8.74337367928
-8.79741606431
-8.85022685887
-8.90174593445
-8.9519113662
-9.00065889617
-9.04792236587
-9.09363392824
-9.13772336428
-9.18011845095
-9.2207453058
-9.25952781703
-9.29638798276
-9.33124626862
-9.36402121609
-9.39462962333
-9.42298651827
-9.44900500498
-9.4725967838
-9.49367217552
-9.51213986397
-9.52790740935
-9.54088114598
-9.55096593226
-9.55806567451
-9.56208341703
-9.56292119284
-9.56048018779
-9.55466180499
-9.54536659238
-9.53249438378
-9.51594496453
-9.49561824557
-9.47141321174
-9.44322906948
-9.41096580218
-9.37452264357
-9.33379880735
-9.28869453377
-9.23910928676
-9.18494204712
-9.12609260951
-9.06245979864
-8.99394097419
-8.92043280695
-8.84182960061
-8.75802218004
-8.6688977489
-8.57433809831
-8.47421807507
-8.36840429288
-8.25675170083
-8.13910148528
-8.01528039209
-7.88509625559
-7.74833697111
-7.60477436864
-7.45416980481
-7.2962948438
-7.13097653053
-6.95818135522
-6.77817560104
-6.59159094455
-6.39929351848
-6.20439738832
-1.52469135087
-1.57645551581
-1.72035016903
-1.88464386408
-2.0389770927
-2.17703508216
-2.29918886504
-2.40797722627
-2.50642099851
-2.59725070756
-2.68265799862
-2.76429564932
-2.84336561668
-2.92071972558
-2.99694942313
-3.0724583904
-3.14751716465
-3.22230370151
-3.29693279216
-3.37147652022
-3.44597871653
-3.52046477854
-3.59494853241
-3.66943592911
-3.74392948232
-3.81842854513
-3.89293140066
-3.96743561947
-4.04193835349
-4.11643716237
-4.1909296916
-4.2654134891
-4.33988659661
-4.41434721728
-4.48879331375
-4.56322299953
-4.63763441165
-4.71202543383
-4.7863939748
-4.86073792859
-4.93505499027
-5.00934270381
-5.08359846403
-5.15781945879
-5.23200260987
-5.30614455666
-5.38024178182
-5.45429052359
-5.528286649
-5.60222580604
-5.67610339493
-5.74991437281
-5.82365338491
-5.89731467892
-5.97089198802
-6.04437861096
-6.11776736903
-6.19105056868
-6.26421995275
-6.33726676838
-6.410181725
-6.48295492506
-6.55557586989
-6.6280334787
-6.70031591078
-6.77241052291
-6.8443039105
-6.91598179467
-6.98742901002
-7.05862954969
-7.12956635602
-7.20022134361
-7.27057556759
-7.34060908973
-7.41030081585
-7.47962853538
-7.54856889688
-7.61709731524
-7.6851879498
-7.75281361059
-7.81994556601
-7.88655359449
-7.95260615564
-8.01807020498
-8.0829110507
-8.14709256027
-8.21057704514
-8.27332493635
-8.33529494692
-8.39644421754
-8.45672802833
-8.51609974385
-8.57451100299
-8.63191150854
-8.68824887592
-8.74346899336
-8.79751592839
-8.85033140956
-8.90185515775
-8.95202527018
-9.00077765175
-9.04804606891
-9.09376258067
-9.13785709745
-9.18025738264
-9.22088950567
-9.25967740021
-9.29654303015
-9.33140687413
-9.36418763811
-9.39480214167
-9.42316533482
-9.44919032097
-9.47278885356
-9.49387134312
-9.51234658349
-9.52812205641
-9.54110414173
-9.55119778805
-9.55830664967
-9.56233413795
-9.56318242473
-9.56075318913
-9.5549475642
-9.54566654158
-9.5328102889
-9.51627878925
-9.4959724872
-9.47179097
-9.44363376978
-9.41140168434
-9.3749954344
-9.33431517002
-9.28926220154
-9.23973821088
-9.18564451435
-9.12688345008
-9.0633572562
-8.99496700544
-8.92161402323
-8.84319911519
-8.75962080763
-8.67077545007
-8.57655657291
-8.47685386676
-8.37155273234
-8.26053217834
-8.14366396644
-8.02081417589
-7.89184235065
-7.75660385216
-7.6149575745
-7.46677683442
-7.31197077692
-7.15052050594
-6.98252736115
-6.80827083424
-6.62817423755
-6.44256099505
-6.25207155817
-1.72876565193
-1.723788036
-1.80776300821
-1.92855263601
-2.05519595952
-2.17787593219
-2.29277280676
-2.39896898246
-2.49725177027
-2.5890405216
-2.67580114836
-2.7588160682
-2.83912015081
-2.91750716008
-2.9945648178
-3.07071754321
-3.14626540707
-3.22141658082
-3.29631310399
-3.3710500566
-3.44568986918
-3.52027257021
-3.59482292244
-3.66935626141
-3.74388039963
-3.81839961681
-3.89291539216
-3.96742773918
-4.04193545285
-4.11643708063
-4.19093113081
-4.26541572949
-4.33988915351
-4.41434987411
-4.48879602262
-4.56322566977
-4.63763699049
-4.71202797152
-4.78639649529
-4.86074043632
-4.93505750818
-5.00934526158
-5.08360107283
-5.15782214074
-5.2320054243
-5.30614755379
-5.38024496701
-5.45429391592
-5.52829028253
-5.60222969072
-5.67610758922
-5.74991899758
-5.82365849531
-5.89732028083
-5.97089810787
-6.04438525674
-6.11777453808
-6.1910582555
-6.26422814508
-6.33727543358
-6.41019085379
-6.48296455958
-6.55558609564
-6.62804439662
-6.70032762244
-6.7724230917
-6.84431738569
-6.91599625991
-6.98744453798
-7.05864616436
-7.12958408576
-7.20024020838
-7.27059558966
-7.34063034554
-7.41032338695
-7.47965247339
-7.54859430248
-7.6171243417
-7.6852167148
-7.75284421503
-7.81997813598
-7.88658818298
-7.95264272282
-8.01810876956
-8.08295169757
-8.14713534001
-8.2106220372
-8.27337228598
-8.3353447699
-8.39649664575
-8.45678329224
-8.51615802978
-8.5745723836
-8.63197612814
-8.68831694674
-8.74354061149
-8.7975911836
-8.85041049486
-8.90193819141
-8.95211236554
-9.00086905479
-9.04814195555
-9.09386300001
-9.13796222732
-9.18036738303
-9.22100441385
-9.25979736175
-9.29666825033
-9.33153756051
-9.36432398892
-9.39494425
-9.42331330536
-9.44934444507
-9.47294943151
-9.49403871446
-9.51252114545
-9.52830412062
-9.54129419369
-9.55139635173
-9.55851442068
-9.56255148412
-9.56341036418
-9.56099276424
-9.55520007299
-9.5459334772
-9.53309363971
-9.51658072384
-9.49629541242
-9.4721382075
-9.44400926022
-9.41180996169
-9.37544238922
-9.33480799773
-9.28980923446
-9.24034974317
-9.18633315276
-9.12766424864
-9.0642487327
-8.99599177556
-8.92279919427
-8.84457775823
-8.76123358476
-8.67267203493
-8.57879792592
-8.47951479527
-8.37472507405
-8.26432986447
-8.14822803508
-8.02631869831
-7.89850403702
-7.76469195185
-7.6248036871
-7.47878611856
-7.32662792744
-7.168381309
-7.00418327227
-6.83425994188
-6.65885499078
-6.47799785957
-6.29151070625
-1.85189455349
-1.82643904707
-1.87579819415
-1.9659582089
-2.07088329528
-2.18020582295
-2.2880427124
-2.39126631733
-2.48893990693
-2.5813299654
-2.66920114007
-2.75344497953
-2.83490029255
-2.91427847929
-2.99214653981
-3.06893866814
-3.14497780696
-3.22049855423
-3.2956681592
-3.37060369054
-3.44538574051
-3.52006890786
-3.59468926957
-3.66927053044
-3.74382684909
-3.81836750677
-3.89289717395
-3.96741830714
-4.04193147528
-4.11643627295
-4.1909320385
-4.26541756705
-4.33989142043
-4.41435226376
-4.48879844811
-4.5632280768
-4.63763933148
-4.71203025968
-4.78639874096
-4.86074262113
-4.93505964949
-5.00934740906
-5.08360327156
-5.15782439801
-5.23200776758
-5.30615004482
-5.38024762988
-5.45429675464
-5.52829334987
-5.60223306414
-5.67611132712
-5.74992315863
-5.82366311715
-5.89732536293
-5.97090365773
-6.04439128154
-6.11778100742
-6.1910651214
-6.26423538693
-6.33728304639
-6.41019884937
-6.4829730035
-6.55559508817
-6.62805402638
-6.70033797205
-6.77243421919
-6.84432932429
-6.91600907063
-6.98745828602
-7.05866086531
-7.12959975715
-7.20025690368
-7.27061335211
-7.34064920629
-7.41034339842
-7.47967371267
-7.54861688547
-7.61714842392
-7.68524241398
-7.75287156669
-7.82000717544
-7.88661896682
-7.95267525254
-8.01814304515
-8.08298778738
-8.1471732849
-8.21066185541
-8.27341411785
-8.33538881804
-8.39654302925
-8.45683211314
-8.51620941823
-8.57462640898
-8.63203287731
-8.68837659109
-8.74360320526
-8.79765666581
-8.85047894767
-8.90200976621
-8.95218712872
-9.00094710496
-9.04822339167
-9.09394785427
-9.13805061083
-9.18045943656
-9.22110016865
-9.25989694293
-9.29677193858
-9.33164562661
-9.36443663691
-9.39506155469
-9.42343535413
-9.44947151041
-9.47308189743
-9.49417698381
-9.51266554935
-9.52845510557
-9.5414519939
-9.55156162629
-9.55868784874
-9.56273379448
-9.56360223949
-9.56119544694
-9.55541485704
-9.54616189971
-9.53333767812
-9.51684261695
-9.49657761879
-9.47244406184
-9.444343029
-9.41217640316
-9.37584731435
-9.33525872177
-9.2903143229
-9.24091958646
-9.18698048357
-9.12840400534
-9.06509896997
-8.99697480836
-8.92394186257
-8.84591225608
-8.76279897239
-8.67451589482
-8.58097845836
-8.48210258642
-8.3778054435
-8.26800707097
-8.1526292901
-8.03159826934
-7.90484929693
-7.77232911645
-7.63400210116
-7.48986119431
-7.33993835133
-7.18431590557
-7.02313206882
-6.85656679711
-6.68478279598
-6.5077692021
-6.32531634702
-1.92593649474
-1.8948875309
-1.92481799196
-1.99459070955
-2.08375918953
-2.18263620815
-2.28451540759
-2.384987591
-2.48191396217
-2.57465989289
-2.66339683359
-2.74866318277
-2.83110827866
-2.91135616348
-2.98994525506
-3.06731199752
-3.1437959233
-3.21965317167
-3.29507252812
-3.37019034336
-3.44510336297
-3.5198792581
-3.59456440939
-3.66919031614
-3.7437764561
-3.81833707948
-3.89287975927
-3.96740911567
-4.0419273885
-4.11643520149
-4.1909326061
-4.26541903782
-4.33989335572
-4.41435433949
-4.48880053427
-4.56323014862
-4.63764134964
-4.71203220437
-4.78640060413
-4.86074440152
-4.93506136973
-5.00934912604
-5.08360504489
-5.15782623957
-5.23200968029
-5.30615207307
-5.38024979269
-5.45429904226
-5.5282958107
-5.60223576323
-5.67611429212
-5.74992643178
-5.82366674103
-5.89732936615
-5.97090806216
-6.04439607826
-6.11778614666
-6.19107053467
-6.26424104527
-6.3372889579
-6.41020503975
-6.48297954711
-6.55560208349
-6.62806154154
-6.70034606501
-6.77244293999
-6.84433868698
-6.91601910148
-6.98746902841
-7.05867231441
-7.12961190894
-7.20026981532
-7.27062706751
-7.34066373377
-7.41035879001
-7.47969006502
-7.54863430209
-7.61716703702
-7.68526232989
-7.75289276977
-7.82002962354
-7.88664270253
-7.95270030268
-8.01816939018
-8.08301546444
-8.14720233541
-8.21069229263
-8.27344608287
-8.3354225555
-8.39657867543
-8.45686972103
-8.51624908825
-8.57466821066
-8.63207684495
-8.6884228608
-8.74365187329
-8.79770766965
-8.85053233143
-8.90206572566
-8.95224571093
-9.00100830839
-9.04828729111
-9.09401447509
-9.13811998311
-9.18053171055
-9.22117546996
-9.25997538423
-9.29685368866
-9.33173084138
-9.36452547004
-9.39515415923
-9.42353190541
-9.44957223557
-9.47318712837
-9.49428693984
-9.51278066056
-9.52857578783
-9.541578629
-9.55169458576
-9.55882787342
-9.56288157964
-9.56375872365
-9.56136177934
-9.55559239355
-9.54635206003
-9.53354230614
-9.51706411643
-9.49681858374
-9.47270778255
-9.44463384352
-9.41249922513
-9.3762078874
-9.33566420887
-9.29077315554
-9.24144196835
-9.18757904979
-9.12909352477
-9.0658968372
-8.99790242061
-8.92502519492
-8.84718224606
-8.7642927267
-8.67627828251
-8.58306364473
-8.48457569138
-8.38074455071
-8.27150602535
-8.15680117628
-8.03657817276
-7.91079753997
-7.77943485345
-7.64248528048
-7.49997235796
-7.35195467702
-7.19853260784
-7.03984876067
-6.87607249422
-6.70736959733
-6.533822363
-6.35544374132
-1.96816947039
-1.93660626083
-1.95625121622
-2.0136974504
-2.0927109527
-2.18448981047
-2.28210741213
-2.3804948215
-2.47677616398
-2.56970972276
-2.65904202306
-2.74504597395
-2.82822187413
-2.90912111863
-2.98825543987
-3.06605968397
-3.14288396262
-3.21899966011
-3.29461136742
-3.36986988077
-3.44488416102
-3.51973180822
-3.59446699521
-3.66912656808
-3.74373698841
-3.8183132969
-3.89286612637
-3.96740187879
-4.04192409549
-4.11643426685
-4.19093296239
-4.26542009716
-4.3398948111
-4.41435595172
-4.48880217647
-4.56323178475
-4.63764292557
-4.71203367463
-4.7864019784
-4.86074571578
-4.93506266201
-5.00935042166
-5.08360638197
-5.15782764414
-5.23201114344
-5.30615360479
-5.38025140075
-5.45430072795
-5.52829762195
-5.60223778242
-5.67611656504
-5.74992897051
-5.82366956803
-5.89733250721
-5.97091150647
-6.04439979414
-6.11779008137
-6.1910746304
-6.26424528521
-6.33729336656
-6.41020966358
-6.48298445771
-6.55560736463
-6.62806724093
-6.70035219558
-6.77244952289
-6.84434573905
-6.91602663978
-6.98747708245
-7.05868087896
-7.12962096264
-7.20027938494
-7.27063719882
-7.34067446384
-7.41037019485
-7.47970224549
-7.54864731996
-7.6171809373
-7.6852771717
-7.75290857094
-7.82004635877
-7.88666037766
-7.95271891942
-8.01818889845
-8.08303586444
-8.14722371563
-8.2107147307
-8.27346965271
-8.3354473898
-8.39660488476
-8.45689735261
-8.51627823771
-8.57469897261
-8.63210919517
-8.68845681186
-8.74368752234
-8.79774502718
-8.85057141147
-8.90210664718
-8.95228846193
-9.00105284593
-9.04833371491
-9.09406286508
-9.1381703258
-9.18058411063
-9.22123009246
-9.26003237445
-9.29691321935
-9.33179298292
-9.36459025213
-9.39522179433
-9.42360264149
-9.44964637054
-9.47326481367
-9.49436831455
-9.51286611727
-9.52866578336
-9.54167366059
-9.55179497659
-9.55893416315
-9.56299465768
-9.56387946771
-9.56149138484
-9.55573219817
-9.54650345791
-9.53370707434
-9.51724469068
-9.49701773695
-9.47292874834
-9.44488082315
-9.41277716916
-9.37652248054
-9.33602248608
-9.29118353507
-9.24191435665
-9.18812560487
-9.12972878707
-9.06663775614
-8.99876942613
-8.92604309228
-8.84838061184
-8.76570690861
-8.67795033645
-8.58504349271
-8.48692345638
-8.38353206479
-8.274818089
-8.16073869234
-8.04126058762
-7.91636450328
-7.78604843697
-7.65033170651
-7.50926218707
-7.36292037386
-7.21142670124
-7.05494301425
-6.89366242322
-6.72780380376
-6.55758715934
-6.38327152765
-1.98741799253
-1.95632232738
-1.97154617934
-2.02321430934
-2.09727194216
-2.18547343547
-2.28087743807
-2.37814589519
-2.47405768517
-2.56706819011
-2.65670329946
-2.74309389755
-2.82665840581
-2.90790702352
-2.98733549963
-3.06537676797
-3.14238600917
-3.21864248621
-3.2943591332
-3.36969449307
-3.44476413828
-3.5196510364
-3.5944137646
-3.66909262526
-3.74371554335
-3.8183003066
-3.89285870165
-3.96739793307
-4.04192226229
-4.1164337352
-4.19093317163
-4.26542071004
-4.33989569105
-4.41435698128
-4.48880325694
-4.5632328579
-4.63764392492
-4.71203455711
-4.78640277217
-4.86074649407
-4.93506348205
-5.00935128663
-5.08360729806
-5.1578286286
-5.23201217645
-5.30615466242
-5.38025249058
-5.45430186858
-5.52829884896
-5.60223915909
-5.67611811982
-5.7499307081
-5.82367151551
-5.89733468655
-5.97091390107
-6.04440234131
-6.11779273321
-6.19107735633
-6.26424807104
-6.33729623518
-6.41021267468
-6.48298768351
-6.55561088691
-6.62807108691
-6.70035632957
-6.77245393743
-6.84435046006
-6.91603167465
-6.9874824255
-7.05868651181
-7.12962685697
-7.20028554776
-7.2706436763
-7.34068130984
-7.41037749832
-7.47971011994
-7.54865580023
-7.61718997295
-7.68528675526
-7.75291875797
-7.82005717164
-7.88667180018
-7.95273090724
-8.01820135991
-8.08304877417
-8.14723719913
-8.21072892281
-8.2734846031
-8.33546315321
-8.39662152957
-8.4569149018
-8.51629674839
-8.57471853056
-8.63212977564
-8.68847835803
-8.74371011433
-8.79776874414
-8.85059621775
-8.90213253155
-8.95231539192
-9.00108077109
-9.0483627118
-9.09409304374
-9.13820173668
-9.18061681389
-9.22126419073
-9.26006798603
-9.29695048544
-9.33183195245
-9.36463099716
-9.39526448616
-9.42364753599
-9.44969371821
-9.47331470727
-9.49442094622
-9.51292163536
-9.52872476815
-9.54173656639
-9.55186223149
-9.55900632667
-9.56307256108
-9.56396406139
-9.56158366603
-9.555833526
-9.54661541485
-9.53383139485
-9.51738370904
-9.49717433164
-9.47310613788
-9.44508305479
-9.41300919981
-9.37678997417
-9.33633241374
-9.29154434763
-9.24233569761
-9.18861907138
-9.13030855796
-9.06732058699
-8.99957526604
-8.92699577153
-8.84950843021
-8.76704359955
-8.67953571016
-8.58692459475
-8.48915671988
-8.38618459974
-8.27796839425
-8.16447912131
-8.0456998054
-7.92162873778
-7.79228342466
-7.65770429548
-7.51796271116
-7.37316260845
-7.22344993507
-7.06901798488
-6.91010593264
-6.74700509046
-6.58006683381
-6.40974364699
-1.98741804684
-1.95632231426
-1.97154617795
-2.02321438928
-2.09727197941
-2.18547342159
-2.28087745142
-2.37814591288
-2.47405770575
-2.56706827715
-2.65670340508
-2.74309397405
-2.82665845906
-2.90790703031
-2.98733545719
-3.06537670958
-3.14238596898
-3.21864249049
-3.2943591606
-3.36969453505
-3.44476421863
-3.51965112358
-3.59441386232
-3.66909280008
-3.74371575223
-3.81830049186
-3.89285888201
-3.96739806004
-4.04192229803
-4.1164337696
-4.19093325459
-4.26542084272
-4.33989592187
-4.41435731851
-4.48880363314
-4.56323321864
-4.6376442304
-4.71203479358
-4.78640298039
-4.86074673794
-4.93506379626
-5.00935167348
-5.08360774679
-5.15782916014
-5.23201277236
-5.30615526025
-5.3802530839
-5.45430248206
-5.52829951119
-5.60223989972
-5.67611896452
-5.74993166817
-5.8236726073
-5.89733591012
-5.97091520445
-6.04440367392
-6.11779407176
-6.19107869724
-6.26424940196
-6.33729757882
-6.41021409639
-6.48298925791
-6.55561266172
-6.6280730538
-6.70035844247
-6.77245618861
-6.84435286771
-6.9160342033
-6.98748502081
-7.05868916366
-7.12962957065
-7.20028833377
-7.27064657077
-7.34068436509
-7.4103807652
-7.47971365922
-7.54865964212
-7.61719407731
-7.68529110249
-7.75292338634
-7.82006206715
-7.88667689487
-7.95273617716
-8.01820678884
-8.08305432931
-8.1472429252
-8.21073491404
-8.2734908958
-8.33546977931
-8.39662856253
-8.4569223551
-8.51630458872
-8.5747268076
-8.6321385058
-8.68848747526
-8.74371963951
-8.79777872608
-8.85060656558
-8.90214319313
-8.95232638518
-9.00109204979
-9.04837429087
-9.09410503673
-9.1382142324
-9.18062987841
-9.22127788555
-9.26008233958
-9.29696554512
-9.33184782926
-9.36464780642
-9.3952823195
-9.42366658769
-9.44971405449
-9.47333661704
-9.49444454875
-9.5129472145
-9.52875257389
-9.54176712636
-9.55189603961
-9.55904399736
-9.56311503393
-9.56401219523
-9.56163834779
-9.55589610096
-9.54668757937
-9.53391493363
-9.51748085962
-9.49728795688
-9.47323947189
-9.44524010549
-9.41319501682
-9.37701025262
-9.33659392848
-9.29185549207
-9.24270619723
-9.18906026594
-9.13083431876
-9.06794771878
-9.00032351862
-8.92788819009
-8.85057235595
-8.76831188315
-8.6810474275
-8.58872557994
-8.49130106761
-8.38873661943
-8.28100340336
-8.16808502993
-8.04997956206
-7.92670199474
-7.79828877277
-7.66480085124
-7.52633338177
-7.3830166469
-7.23502747795
-7.08259690108
-6.92601687643
-6.76564986827
-6.60194996182
-6.4354968826
-1.96816961817
-1.93660625379
-1.95625121667
-2.01369765389
-2.09271104406
-2.18448976966
-2.28210744422
-2.3804948627
-2.47677621551
-2.56970995821
-2.65904230899
-2.74504619073
-2.82822204204
-2.90912115891
-2.98825534703
-3.06605955146
-3.14288387095
-3.21899967681
-3.29461144421
-3.36986999926
-3.44488438946
-3.51973206816
-3.59446729814
-3.66912706883
-3.74373756361
-3.81831380875
-3.89286662735
-3.96740223524
-4.04192422204
-4.11643440708
-4.19093325632
-4.26542055687
-4.33989555952
-4.41435697906
-4.48880329929
-4.56323284977
-4.63764382567
-4.71203439073
-4.78640263308
-4.86074648029
-4.93506363996
-5.00935160806
-5.083607745
-5.15782920807
-5.23201284259
-5.30615530902
-5.38025311876
-5.45430254918
-5.52829962543
-5.60224006201
-5.67611916842
-5.74993190908
-5.82367287569
-5.89733617802
-5.97091543245
-6.04440382471
-6.11779412986
-6.19107866083
-6.2642492772
-6.33729741498
-6.4102139711
-6.48298920764
-6.55561266966
-6.62807309282
-6.70035849378
-6.7724562567
-6.84435295131
-6.91603423019
-6.98748489487
-7.05868885427
-7.12962909576
-7.20028772644
-7.27064589111
-7.34068365696
-7.41038001576
-7.47971285585
-7.54865881279
-7.61719323836
-7.68529024596
-7.75292250256
-7.82006108177
-7.88667568504
-7.95273472444
-8.01820516769
-8.0830525568
-8.14724097313
-8.21073278008
-8.27348857629
-8.33546728309
-8.39662596654
-8.45691969114
-8.51630176148
-8.57472377677
-8.63213532224
-8.68848411125
-8.74371605601
-8.79777491599
-8.85060242656
-8.90213861391
-8.95232140025
-9.00108667121
-9.04836853093
-9.09409896422
-9.13820790433
-9.18062330888
-9.22127110657
-9.26007535677
-9.29695835698
-9.3318405721
-9.36464055248
-9.39527523469
-9.42365968756
-9.44970735339
-9.47333029756
-9.49443897529
-9.51294254613
-9.52874911228
-9.54176522855
-9.55189630441
-9.55904710998
-9.56312178982
-9.56402351524
-9.56165519512
-9.55591976139
-9.54671971103
-9.53395736932
-9.51753581702
-9.49735831003
-9.47332859954
-9.44535207328
-9.41333485496
-9.3771836511
-9.33680748947
-9.29211753549
-9.24302668124
-9.1894506961
-9.13130861896
-9.0685226864
-9.00101871624
-8.92872663334
-8.85158153446
-8.76952458715
-8.68250270101
-8.59046932755
-8.49338697814
-8.39122814541
-8.28397520642
-8.17162440256
-8.05418847323
-7.93169904499
-7.80421153255
-7.67180791667
-7.53460752999
-7.3927691077
-7.24650222777
-7.09607547804
-6.94182939627
-6.78418495437
-6.62366479706
-6.46091752959
-1.92593670693
-1.8948875558
-1.92481801286
-1.99459095628
-2.08375930433
-2.18263616119
-2.28451542787
-2.38498761954
-2.48191403614
-2.57466022206
-2.66339723495
-2.7486635271
-2.83110857541
-2.91135627467
-2.98994517995
-3.06731186377
-3.14379582189
-3.21965319593
-3.29507263346
-3.37019052215
-3.44510371755
-3.51987970053
-3.59456494481
-3.66919110249
-3.74377733193
-3.81833788484
-3.89288054763
-3.96740969595
-4.04192767601
-4.1164355144
-4.19093313309
-4.26541984293
-4.33989460407
-4.41435596372