/*--------------------------------*- C++ -*----------------------------------*\
| =========                 |                                                 |
| \\      /  F ield         | OpenFOAM: The Open Source CFD Toolbox           |
|  \\    /   O peration     | Version:  2106                                  |
|   \\  /    A nd           | Website:  www.openfoam.com                      |
|    \\/     M anipulation  |                                                 |
\*---------------------------------------------------------------------------*/
FoamFile
{
    version     2.0;
    format      ascii;
    arch        "LSB;label=32;scalar=64";
    class       volVectorField;
    location    "0.3";
    object      U;
}
// * * * * * * * * * * * * * * * * * * * * * * * * * * * * * * * * * * * * * //

dimensions      [0 1 -1 0 0 0 0];

internalField   nonuniform List<vector> 
9600
(
(0.675396200845 0.157677421926 0)
(0.563826158626 0.10243080056 0)
(0.381538912215 0.051064700656 0)
(0.283853196189 0.0244589893112 0)
(0.23228103267 0.011934821426 0)
(0.201907706975 0.00623035869359 0)
(0.183178404856 0.00352192710046 0)
(0.171271983244 0.00212007526703 0)
(0.163512235574 0.00132523565593 0)
(0.158392653614 0.000841456517738 0)
(0.155010691303 0.000534135449715 0)
(0.152789973588 0.000335039215926 0)
(0.151348686407 0.000205521302829 0)
(0.150429239814 0.000121792422902 0)
(0.149856452676 6.84340082444e-05 0)
(0.149511114836 3.51734084538e-05 0)
(0.149312503491 1.50868458327e-05 0)
(0.149206451529 3.50374071203e-06 0)
(0.149157068729 -2.70705077087e-06 0)
(0.149140957311 -5.61167639046e-06 0)
(0.149143239882 -6.52742541874e-06 0)
(0.149154636345 -6.41817802706e-06 0)
(0.149169575959 -5.78214776017e-06 0)
(0.149184948393 -4.92818691522e-06 0)
(0.149199119914 -4.04263408238e-06 0)
(0.149211368921 -3.22375520551e-06 0)
(0.149221506938 -2.51468441372e-06 0)
(0.149229634925 -1.92776808895e-06 0)
(0.149235989794 -1.45792905526e-06 0)
(0.149240854902 -1.09110709968e-06 0)
(0.149244513428 -8.11204626673e-07 0)
(0.149247221196 -6.02035709916e-07 0)
(0.149249194874 -4.47931210121e-07 0)
(0.14925061332 -3.36127205609e-07 0)
(0.149251619241 -2.56447769813e-07 0)
(0.149252322017 -1.9989875783e-07 0)
(0.149252805627 -1.59660632437e-07 0)
(0.149253133595 -1.31081195591e-07 0)
(0.149253351692 -1.10277860449e-07 0)
(0.149253493474 -9.43764329385e-08 0)
(0.149253583989 -8.20150592598e-08 0)
(0.149253640821 -7.32143979906e-08 0)
(0.149253675074 -6.94611081534e-08 0)
(0.149253693731 -7.0276930273e-08 0)
(0.149253702433 -7.34905347188e-08 0)
(0.149253705274 -7.82328570346e-08 0)
(0.149253704698 -8.43361397629e-08 0)
(0.149253702802 -9.20319388001e-08 0)
(0.149253700872 -1.00836554413e-07 0)
(0.149253699193 -1.10024558815e-07 0)
(0.149253698145 -1.1934596324e-07 0)
(0.149253697969 -1.29146521879e-07 0)
(0.149253698248 -1.39451891725e-07 0)
(0.149253698735 -1.50277465139e-07 0)
(0.149253699436 -1.61903268964e-07 0)
(0.149253700047 -1.74319347743e-07 0)
(0.149253700431 -1.87431693175e-07 0)
(0.149253700831 -2.01510834092e-07 0)
(0.149253701272 -2.16711833695e-07 0)
(0.149253701493 -2.32907888471e-07 0)
(0.149253701423 -2.50076958964e-07 0)
(0.149253701195 -2.68442056943e-07 0)
(0.149253700809 -2.8803348064e-07 0)
(0.149253700279 -3.08796591416e-07 0)
(0.149253699763 -3.30829749165e-07 0)
(0.149253699274 -3.54189254879e-07 0)
(0.149253698615 -3.78929284322e-07 0)
(0.149253697465 -4.05217407074e-07 0)
(0.149253695377 -4.32954123398e-07 0)
(0.149253692219 -4.6214029746e-07 0)
(0.149253688354 -4.93128543659e-07 0)
(0.149253684013 -5.26003174701e-07 0)
(0.149253679423 -5.60513640088e-07 0)
(0.149253675084 -5.96759358806e-07 0)
(0.149253670903 -6.35002627294e-07 0)
(0.149253666174 -6.7534058082e-07 0)
(0.149253660642 -7.17877408628e-07 0)
(0.149253654515 -7.62660405635e-07 0)
(0.149253647979 -8.09587088889e-07 0)
(0.149253641269 -8.58822777235e-07 0)
(0.149253634382 -9.10719257325e-07 0)
(0.149253627051 -9.65057337514e-07 0)
(0.149253619672 -1.02147074396e-06 0)
(0.149253613027 -1.08039405075e-06 0)
(0.149253606647 -1.14224529682e-06 0)
(0.149253599427 -1.20676211621e-06 0)
(0.149253591705 -1.27410034002e-06 0)
(0.149253584348 -1.34469545786e-06 0)
(0.149253577039 -1.41812857782e-06 0)
(0.149253569593 -1.49405645622e-06 0)
(0.149253562787 -1.57291652831e-06 0)
(0.149253557038 -1.65473463537e-06 0)
(0.149253552372 -1.73931914816e-06 0)
(0.14925354898 -1.82719398597e-06 0)
(0.149253546629 -1.91843539817e-06 0)
(0.14925354533 -2.01224614922e-06 0)
(0.149253546573 -2.10857724762e-06 0)
(0.1492535515 -2.20776619725e-06 0)
(0.149253559052 -2.30907758327e-06 0)
(0.149253568771 -2.41207561711e-06 0)
(0.149253582809 -2.5175501009e-06 0)
(0.149253602807 -2.62522697547e-06 0)
(0.149253629189 -2.73417627466e-06 0)
(0.149253663838 -2.84486176245e-06 0)
(0.149253708822 -2.95782979781e-06 0)
(0.149253765828 -3.07277594134e-06 0)
(0.149253838454 -3.19004026659e-06 0)
(0.149253930972 -3.30999284568e-06 0)
(0.149254047422 -3.4333241059e-06 0)
(0.149254193073 -3.56356083449e-06 0)
(0.14925437462 -3.70766393106e-06 0)
(0.149254600961 -3.86789493566e-06 0)
(0.149254883226 -4.03886784912e-06 0)
(0.149255234808 -4.21895066539e-06 0)
(0.149255672701 -4.40910503645e-06 0)
(0.149256217189 -4.61026785387e-06 0)
(0.149256891692 -4.82303060227e-06 0)
(0.149257726658 -5.04898962023e-06 0)
(0.149258761616 -5.28994190164e-06 0)
(0.149260043294 -5.54708799711e-06 0)
(0.149261628836 -5.82254288497e-06 0)
(0.149263591166 -6.12022160858e-06 0)
(0.149266022002 -6.4474755669e-06 0)
(0.149269046086 -6.82265617298e-06 0)
(0.149272832406 -7.31020988267e-06 0)
(0.149277514915 -8.02422495636e-06 0)
(0.149283267574 -8.89648584276e-06 0)
(0.149290376068 -9.89177528186e-06 0)
(0.149299178705 -1.10106619193e-05 0)
(0.149310080845 -1.22644348508e-05 0)
(0.149323581776 -1.36726426299e-05 0)
(0.149340303757 -1.52627501533e-05 0)
(0.149361015598 -1.70674988854e-05 0)
(0.149386666265 -1.91254597036e-05 0)
(0.149418439895 -2.14879990205e-05 0)
(0.149457808344 -2.42202899154e-05 0)
(0.149506594422 -2.7401806562e-05 0)
(0.149567065766 -3.11356196536e-05 0)
(0.149642044056 -3.55527296189e-05 0)
(0.149735041787 -4.08160909732e-05 0)
(0.149850445489 -4.71348034573e-05 0)
(0.149993738863 -5.47759229514e-05 0)
(0.150171787229 -6.40772801638e-05 0)
(0.150393216834 -7.5472952252e-05 0)
(0.150668906479 -8.9523715798e-05 0)
(0.151012633832 -0.000106954389208 0)
(0.151441942211 -0.000128708871158 0)
(0.151979314602 -0.000156024211269 0)
(0.152653805355 -0.000190533245946 0)
(0.153503354513 -0.000234409684311 0)
(0.154578155986 -0.00029058193687 0)
(0.155945860971 -0.000363153718932 0)
(0.1577004219 -0.00045859765013 0)
(0.159979898436 -0.000590113501054 0)
(0.163009017803 -0.000794448490922 0)
(0.167206538673 -0.0011938225915 0)
(0.173518573148 -0.00222165255704 0)
(0.18477350032 -0.00549079644749 0)
(0.20952804536 -0.0171109624486 0)
(0.264088488833 -0.0596573912372 0)
(0.977201198821 0.296997107888 0)
(0.962687481468 0.250387255875 0)
(0.820646016879 0.158581022456 0)
(0.697824896034 0.0957993487944 0)
(0.610491671579 0.0579132738339 0)
(0.549133314257 0.035903852265 0)
(0.506705983624 0.0229309370951 0)
(0.477662018034 0.0149788788653 0)
(0.457815295821 0.00990973187489 0)
(0.444277670532 0.00658330970401 0)
(0.43508722121 0.00436198717494 0)
(0.428895551286 0.00286682673158 0)
(0.424768033521 0.00185972104097 0)
(0.422054224236 0.00118457282961 0)
(0.420301042444 0.00073611041038 0)
(0.419193668242 0.000442158716464 0)
(0.418514596954 0.000252859446898 0)
(0.418114819056 0.000133738427949 0)
(0.417893358824 6.10517159643e-05 0)
(0.417782714173 1.85772639539e-05 0)
(0.417738455026 -4.63457496911e-06 0)
(0.417731916896 -1.60102212756e-05 0)
(0.417745132794 -2.03063744583e-05 0)
(0.417767156068 -2.06087564076e-05 0)
(0.417791605406 -1.88551982813e-05 0)
(0.417815020092 -1.62206121888e-05 0)
(0.417835739459 -1.33825183667e-05 0)
(0.417853171302 -1.07045419379e-05 0)
(0.417867320129 -8.35680291246e-06 0)
(0.417878490718 -6.39357282296e-06 0)
(0.417887114592 -4.80726245582e-06 0)
(0.417893648174 -3.55987652065e-06 0)
(0.417898515161 -2.59930006467e-06 0)
(0.417902085014 -1.87253364508e-06 0)
(0.417904666905 -1.33198587885e-06 0)
(0.41790650824 -9.35267679259e-07 0)
(0.417907802592 -6.47300415395e-07 0)
(0.417908699749 -4.4124337632e-07 0)
(0.417909312093 -2.95621434879e-07 0)
(0.417909722488 -1.93630199796e-07 0)
(0.417909991804 -1.23454581376e-07 0)
(0.417910163285 -7.69911173494e-08 0)
(0.417910267965 -4.87515844434e-08 0)
(0.417910329031 -3.33720677133e-08 0)
(0.417910362224 -2.58451764852e-08 0)
(0.41791037721 -2.28792298626e-08 0)
(0.4179103804 -2.1495253577e-08 0)
(0.417910377493 -2.03323033103e-08 0)
(0.417910372642 -2.00825727944e-08 0)
(0.417910367143 -2.0689356099e-08 0)
(0.41791036128 -2.16244866331e-08 0)
(0.417910355628 -2.29545182093e-08 0)
(0.417910350304 -2.45892678653e-08 0)
(0.41791034486 -2.6389556745e-08 0)
(0.41791033927 -2.86248180179e-08 0)
(0.417910333569 -3.12500826646e-08 0)
(0.417910327486 -3.38398372834e-08 0)
(0.417910321073 -3.64882056565e-08 0)
(0.417910314554 -3.93964122373e-08 0)
(0.417910307727 -4.23874626164e-08 0)
(0.417910300323 -4.5372962858e-08 0)
(0.417910292476 -4.86053332409e-08 0)
(0.417910284254 -5.21814283253e-08 0)
(0.417910275485 -5.58984777775e-08 0)
(0.417910266307 -5.95228518756e-08 0)
(0.417910256868 -6.3002258839e-08 0)
(0.417910246811 -6.65184336964e-08 0)
(0.417910235801 -7.04222860156e-08 0)
(0.417910223526 -7.46561217324e-08 0)
(0.417910209606 -7.88776604547e-08 0)
(0.417910194377 -8.33901550934e-08 0)
(0.417910178477 -8.83070932709e-08 0)
(0.417910162101 -9.31621812137e-08 0)
(0.417910145454 -9.80155100843e-08 0)
(0.417910128504 -1.03347635128e-07 0)
(0.417910110541 -1.09253084072e-07 0)
(0.417910091206 -1.15683062879e-07 0)
(0.417910070923 -1.22482038678e-07 0)
(0.41791004994 -1.29196646534e-07 0)
(0.417910028164 -1.35933143e-07 0)
(0.417910005791 -1.43350813871e-07 0)
(0.417909983095 -1.51132717021e-07 0)
(0.41790996009 -1.58489507889e-07 0)
(0.417909937075 -1.66112075257e-07 0)
(0.417909914125 -1.74984679634e-07 0)
(0.41790989031 -1.84525020941e-07 0)
(0.417909865547 -1.94298074411e-07 0)
(0.417909841339 -2.0494873538e-07 0)
(0.417909818034 -2.16332519118e-07 0)
(0.417909794823 -2.27865170578e-07 0)
(0.417909772448 -2.39857694304e-07 0)
(0.417909752151 -2.52345354247e-07 0)
(0.417909733767 -2.65113200611e-07 0)
(0.417909717435 -2.79148231502e-07 0)
(0.41790970431 -2.9509983478e-07 0)
(0.417909695122 -3.11873312576e-07 0)
(0.417909691201 -3.29200391777e-07 0)
(0.417909694879 -3.4860871166e-07 0)
(0.417909706406 -3.70736650595e-07 0)
(0.417909725244 -3.96127530617e-07 0)
(0.417909755056 -4.26359794133e-07 0)
(0.417909800522 -4.61273213499e-07 0)
(0.417909863272 -4.99836739746e-07 0)
(0.417909946532 -5.42833877112e-07 0)
(0.417910056335 -5.91850615837e-07 0)
(0.417910198551 -6.46788960063e-07 0)
(0.417910381017 -7.08168992088e-07 0)
(0.417910613507 -7.77198855664e-07 0)
(0.417910904701 -8.53776214946e-07 0)
(0.417911263433 -9.3663581669e-07 0)
(0.417911708427 -1.02029750676e-06 0)
(0.417912273079 -1.10314572606e-06 0)
(0.417912988987 -1.19452582199e-06 0)
(0.417913885656 -1.30057230522e-06 0)
(0.417915004239 -1.42700764549e-06 0)
(0.417916397485 -1.58084000617e-06 0)
(0.417918128092 -1.76926772585e-06 0)
(0.417920275291 -2.00086870785e-06 0)
(0.417922940533 -2.28779545952e-06 0)
(0.417926246055 -2.64443508487e-06 0)
(0.41793034069 -3.08740246129e-06 0)
(0.417935410804 -3.63941572632e-06 0)
(0.417941686042 -4.32995552675e-06 0)
(0.417949438786 -5.20168035048e-06 0)
(0.41795900063 -6.33881546691e-06 0)
(0.417970858144 -7.87969760966e-06 0)
(0.417985614132 -9.84590449481e-06 0)
(0.418003931217 -1.22952965853e-05 0)
(0.418026643918 -1.53301034402e-05 0)
(0.418054794276 -1.90840714889e-05 0)
(0.418089672487 -2.37234934444e-05 0)
(0.418132885528 -2.94585530953e-05 0)
(0.418186426163 -3.65502743864e-05 0)
(0.418252756819 -4.53152228195e-05 0)
(0.418334937139 -5.61481042256e-05 0)
(0.418436771343 -6.95428683672e-05 0)
(0.418562976393 -8.61100685578e-05 0)
(0.418719413868 -0.000106613120906 0)
(0.418913381327 -0.000132008775167 0)
(0.419153964968 -0.000163492712441 0)
(0.419452500092 -0.000202571971801 0)
(0.41982315754 -0.000251153851014 0)
(0.420283683789 -0.00031165661181 0)
(0.42085637122 -0.000387168919011 0)
(0.421569331453 -0.000481665227232 0)
(0.422458173024 -0.000600301479284 0)
(0.423568260244 -0.000749842420153 0)
(0.42495780956 -0.000939279805077 0)
(0.426702247537 -0.00118076763167 0)
(0.428900548904 -0.00149112709367 0)
(0.431684815863 -0.00189440836404 0)
(0.435235580714 -0.0024267190955 0)
(0.43980787633 -0.0031465242139 0)
(0.445779302794 -0.0041594604706 0)
(0.453745057656 -0.00568428203239 0)
(0.46470001388 -0.0082348791068 0)
(0.480381928568 -0.0131245437121 0)
(0.504146597814 -0.0239189928391 0)
(0.54251863948 -0.0505569420594 0)
(0.59965627855 -0.116981697471 0)
(1.03387040647 0.239240969489 0)
(1.08314083679 0.293634364669 0)
(1.03294436991 0.239131937712 0)
(0.954408204725 0.174539022 0)
(0.880112586581 0.12155146216 0)
(0.81867761488 0.0832335931317 0)
(0.771466788918 0.0568258126573 0)
(0.73669156789 0.0388125729133 0)
(0.711672093892 0.0264913176932 0)
(0.693953119958 0.0180235765218 0)
(0.681568192447 0.0121876204596 0)
(0.673018591908 0.00816650340472 0)
(0.667192223186 0.00540556561696 0)
(0.66327773985 0.00352226259036 0)
(0.660690301552 0.00224961132884 0)
(0.659012725898 0.00140002702441 0)
(0.65795051595 0.000841455411576 0)
(0.65729806008 0.00048112301463 0)
(0.65691351425 0.000254194629185 0)
(0.656700321613 0.00011571185755 0)
(0.656593712099 3.47980019244e-05 0)
(0.656550997501 -9.46317904809e-06 0)
(0.656544654234 -3.10074120274e-05 0)
(0.656557351626 -3.90710540143e-05 0)
(0.656578534396 -3.95431085955e-05 0)
(0.656602058036 -3.61156375696e-05 0)
(0.656624587796 -3.10262867086e-05 0)
(0.656644524536 -2.55649042078e-05 0)
(0.656661298642 -2.04213048202e-05 0)
(0.656674912904 -1.59147984353e-05 0)
(0.656685661181 -1.21478681869e-05 0)
(0.656693960015 -9.10552122333e-06 0)
(0.656700246955 -6.71242672163e-06 0)
(0.656704929424 -4.86935174904e-06 0)
(0.656708364221 -3.47623874915e-06 0)
(0.656710847711 -2.44079074314e-06 0)
(0.656712617183 -1.68260216395e-06 0)
(0.656713859843 -1.13604333947e-06 0)
(0.656714719732 -7.48504857792e-07 0)
(0.656715304867 -4.78176881985e-07 0)
(0.656715695785 -2.93297474796e-07 0)
(0.656715951678 -1.69838819643e-07 0)
(0.656716114906 -8.89918728996e-08 0)
(0.656716215311 -3.71489304573e-08 0)
(0.656716274042 -5.31176824499e-09 0)
(0.656716306356 1.30051303212e-08 0)
(0.656716322037 2.3360797693e-08 0)
(0.656716326387 2.97638067878e-08 0)
(0.656716323649 3.3624287897e-08 0)
(0.656716317615 3.6360715541e-08 0)
(0.656716310185 3.90243734898e-08 0)
(0.65671630235 4.19323292471e-08 0)
(0.656716294492 4.50131324351e-08 0)
(0.656716286298 4.83716146758e-08 0)
(0.656716277754 5.20012590713e-08 0)
(0.656716269209 5.60102385222e-08 0)
(0.656716260527 6.04398297327e-08 0)
(0.656716251478 6.53271689737e-08 0)
(0.656716242208 7.04141782905e-08 0)
(0.656716232594 7.55749962702e-08 0)
(0.656716222256 8.10137851736e-08 0)
(0.656716211202 8.68027226541e-08 0)
(0.656716199643 9.28495586069e-08 0)
(0.656716187683 9.94810478779e-08 0)
(0.656716175395 1.06897257488e-07 0)
(0.656716162574 1.14891599814e-07 0)
(0.656716148645 1.23197560495e-07 0)
(0.656716133313 1.3179125568e-07 0)
(0.656716116663 1.41003653568e-07 0)
(0.656716098407 1.51213345728e-07 0)
(0.656716078621 1.62357109576e-07 0)
(0.656716058077 1.74089897816e-07 0)
(0.656716036997 1.86509517941e-07 0)
(0.656716015221 1.99682791961e-07 0)
(0.656715992692 2.13234502077e-07 0)
(0.656715968992 2.2705644803e-07 0)
(0.656715943914 2.41460558044e-07 0)
(0.656715918023 2.56767847881e-07 0)
(0.656715891467 2.73253396222e-07 0)
(0.656715863671 2.90969476977e-07 0)
(0.656715834894 3.09624877598e-07 0)
(0.656715805971 3.29188964245e-07 0)
(0.656715776621 3.5005045314e-07 0)
(0.656715746433 3.71905922593e-07 0)
(0.656715716058 3.9385009025e-07 0)
(0.656715685528 4.16239998135e-07 0)
(0.656715654315 4.40246928172e-07 0)
(0.656715623247 4.6561716871e-07 0)
(0.656715593119 4.91541488095e-07 0)
(0.656715563591 5.18526469325e-07 0)
(0.656715535413 5.4720667753e-07 0)
(0.656715509908 5.77291253176e-07 0)
(0.656715486671 6.08555762828e-07 0)
(0.656715465599 6.40750083337e-07 0)
(0.656715448774 6.73281883999e-07 0)
(0.656715437869 7.06590826534e-07 0)
(0.656715433482 7.41394693648e-07 0)
(0.656715437322 7.76341374668e-07 0)
(0.656715450444 8.10465971184e-07 0)
(0.656715473489 8.46502394984e-07 0)
(0.656715511898 8.85636066265e-07 0)
(0.656715572307 9.24448173682e-07 0)
(0.656715657743 9.61180126664e-07 0)
(0.656715772462 9.95073215817e-07 0)
(0.656715924972 1.02405696182e-06 0)
(0.656716124766 1.04648934555e-06 0)
(0.65671638283 1.060244159e-06 0)
(0.656716714063 1.06163031643e-06 0)
(0.656717136801 1.04767693488e-06 0)
(0.656717675809 1.01698005712e-06 0)
(0.656718357818 9.7163645849e-07 0)
(0.656719205223 9.08551383296e-07 0)
(0.656720253119 8.12501242086e-07 0)
(0.656721554688 6.70912493939e-07 0)
(0.656723172001 4.70192883149e-07 0)
(0.656725180679 1.91435740938e-07 0)
(0.656727672776 -1.86978768918e-07 0)
(0.656730761567 -6.89624845989e-07 0)
(0.65673458965 -1.35022457709e-06 0)
(0.656739333188 -2.21126855869e-06 0)
(0.65674520731 -3.32281465865e-06 0)
(0.6567524805 -4.74683569859e-06 0)
(0.656761489121 -6.56150389672e-06 0)
(0.656772648161 -8.86288091061e-06 0)
(0.656786463408 -1.17614342214e-05 0)
(0.656803566135 -1.53853070446e-05 0)
(0.656824740994 -1.99511152382e-05 0)
(0.656850954828 -2.57067431131e-05 0)
(0.656883414571 -3.29518221417e-05 0)
(0.656923615142 -4.20583387914e-05 0)
(0.65697340152 -5.34807033221e-05 0)
(0.657035061177 -6.77845089545e-05 0)
(0.657111434648 -8.56777849741e-05 0)
(0.657206037769 -0.000108033031644 0)
(0.657323230364 -0.000135930053302 0)
(0.657468429739 -0.000170717003181 0)
(0.65764835734 -0.000214070353815 0)
(0.657871360557 -0.000268077027246 0)
(0.658147824482 -0.000335347356513 0)
(0.658490673788 -0.000419149398713 0)
(0.658916016636 -0.000523587697683 0)
(0.659443969098 -0.0006538442733 0)
(0.660099695961 -0.000816487984058 0)
(0.66091476076 -0.00101989089689 0)
(0.661928888791 -0.00127480381296 0)
(0.663192278527 -0.00159515884999 0)
(0.664768696726 -0.00199921929958 0)
(0.66673969076 -0.0025112629888 0)
(0.66921043814 -0.00316415039003 0)
(0.672318126169 -0.00400346361945 0)
(0.676244340504 -0.00509452006244 0)
(0.681234057002 -0.00653509402718 0)
(0.6876258189 -0.0084803238769 0)
(0.695901158497 -0.0111946847867 0)
(0.706766441562 -0.0151663939358 0)
(0.721273637152 -0.0213645678869 0)
(0.740941406631 -0.0317958476178 0)
(0.767828921138 -0.0506362959712 0)
(0.804066727372 -0.086351768371 0)
(0.845898623882 -0.15312482104 0)
(1.03384129317 0.171306960557 0)
(1.10231586227 0.275556736291 0)
(1.11663620837 0.266312372628 0)
(1.09207924383 0.219892605764 0)
(1.05195419937 0.168210316084 0)
(1.01022221405 0.123615335459 0)
(0.97350771506 0.0888850598542 0)
(0.943885942207 0.0630494621885 0)
(0.921162793799 0.0442607980412 0)
(0.904299816607 0.0307744347969 0)
(0.892086129141 0.0211830160895 0)
(0.883411228806 0.01441729934 0)
(0.877355058954 0.00968544247497 0)
(0.873196212596 0.00640758807728 0)
(0.870388060762 0.00416172430787 0)
(0.868526254816 0.00264232180839 0)
(0.867317295996 0.00162947720262 0)
(0.866551580969 0.000966024948214 0)
(0.866081652502 0.000540572594912 0)
(0.865805294028 0.00027492659441 0)
(0.865652718376 0.000114791362289 0)
(0.865577084763 2.29563106562e-05 0)
(0.865547471464 -2.57251007265e-05 0)
(0.865543933573 -4.8045464345e-05 0)
(0.865553980702 -5.4925052177e-05 0)
(0.865569983936 -5.33263499119e-05 0)
(0.865587521328 -4.75736325965e-05 0)
(0.865604210056 -4.02463989753e-05 0)
(0.865618921946 -3.27998196014e-05 0)
(0.865631267307 -2.59829155123e-05 0)
(0.865641266404 -2.01162882965e-05 0)
(0.865649148508 -1.52757246757e-05 0)
(0.865655226401 -1.14049504727e-05 0)
(0.865659824511 -8.38435063721e-06 0)
(0.865663245297 -6.07505438269e-06 0)
(0.865665751668 -4.34142880498e-06 0)
(0.865667560616 -3.06063470271e-06 0)
(0.86566884718 -2.12841861976e-06 0)
(0.86566974921 -1.45992224589e-06 0)
(0.865670371803 -9.87331087077e-07 0)
(0.86567079408 -6.58062621621e-07 0)
(0.865671075069 -4.32470132655e-07 0)
(0.865671257701 -2.80939766377e-07 0)
(0.865671372449 -1.81358657165e-07 0)
(0.865671440912 -1.17529241468e-07 0)
(0.86567147892 -7.82613135875e-08 0)
(0.86567149748 -5.57149956335e-08 0)
(0.865671503717 -4.36764504009e-08 0)
(0.865671503131 -3.76373510299e-08 0)
(0.865671499086 -3.5134785505e-08 0)
(0.865671492569 -3.49441091026e-08 0)
(0.865671484363 -3.66251639196e-08 0)
(0.86567147518 -3.9924120708e-08 0)
(0.865671465034 -4.4268172619e-08 0)
(0.865671454124 -4.89919040284e-08 0)
(0.86567144274 -5.3882860464e-08 0)
(0.865671430707 -5.8824412711e-08 0)
(0.865671417851 -6.37934381016e-08 0)
(0.865671404221 -6.91193783038e-08 0)
(0.865671389993 -7.5141105597e-08 0)
(0.86567137508 -8.16311542277e-08 0)
(0.865671359357 -8.82780781276e-08 0)
(0.865671343022 -9.50329774755e-08 0)
(0.865671326075 -1.0172144219e-07 0)
(0.865671308266 -1.08449213742e-07 0)
(0.865671289433 -1.15614717231e-07 0)
(0.865671269305 -1.23327632626e-07 0)
(0.865671247913 -1.31402451532e-07 0)
(0.865671225275 -1.39696590408e-07 0)
(0.865671200784 -1.47957293712e-07 0)
(0.865671174222 -1.56099436051e-07 0)
(0.865671146296 -1.64689091187e-07 0)
(0.8656711175 -1.74053759517e-07 0)
(0.865671087698 -1.84065959327e-07 0)
(0.865671056711 -1.94920638043e-07 0)
(0.865671024286 -2.06767662044e-07 0)
(0.865670990367 -2.19188174865e-07 0)
(0.865670955434 -2.31907564463e-07 0)
(0.865670919626 -2.45054837744e-07 0)
(0.865670882397 -2.58476162179e-07 0)
(0.865670843821 -2.72095211871e-07 0)
(0.865670804729 -2.86545529924e-07 0)
(0.865670765005 -3.0215713358e-07 0)
(0.865670723987 -3.18715203501e-07 0)
(0.86567068233 -3.36717297571e-07 0)
(0.86567064083 -3.56495553501e-07 0)
(0.865670599008 -3.77146548879e-07 0)
(0.865670556872 -3.9853242206e-07 0)
(0.865670515444 -4.21633144977e-07 0)
(0.865670475247 -4.46229929461e-07 0)
(0.865670436778 -4.71749650854e-07 0)
(0.86567040097 -4.99227089338e-07 0)
(0.865670367902 -5.29593505769e-07 0)
(0.865670337726 -5.62672344332e-07 0)
(0.865670312712 -5.99053606319e-07 0)
(0.865670295271 -6.39615893206e-07 0)
(0.865670286003 -6.84216781403e-07 0)
(0.865670286776 -7.33893131311e-07 0)
(0.865670302127 -7.90488803957e-07 0)
(0.865670334711 -8.52327217051e-07 0)
(0.865670385307 -9.17988117236e-07 0)
(0.86567045828 -9.91283813514e-07 0)
(0.865670559756 -1.07534771809e-06 0)
(0.865670695988 -1.17140081928e-06 0)
(0.865670876461 -1.28201209651e-06 0)
(0.865671111979 -1.41079290015e-06 0)
(0.865671414883 -1.5622259856e-06 0)
(0.865671801798 -1.74279723902e-06 0)
(0.865672292321 -1.96010032636e-06 0)
(0.865672910521 -2.22377505923e-06 0)
(0.865673687473 -2.54999448457e-06 0)
(0.865674660257 -2.95532069152e-06 0)
(0.865675875468 -3.45176593354e-06 0)
(0.865677391033 -4.05767561588e-06 0)
(0.865679276061 -4.7980082825e-06 0)
(0.865681617725 -5.70601093723e-06 0)
(0.865684524971 -6.82225897649e-06 0)
(0.865688130278 -8.19485152955e-06 0)
(0.86569259868 -9.88427406085e-06 0)
(0.865698135874 -1.19677009504e-05 0)
(0.865704994884 -1.4538930344e-05 0)
(0.865713489395 -1.77126015905e-05 0)
(0.865724010937 -2.16341913383e-05 0)
(0.86573704368 -2.64875542787e-05 0)
(0.865753182446 -3.25025625457e-05 0)
(0.865773165483 -3.99585432928e-05 0)
(0.865797908105 -4.91977764157e-05 0)
(0.865828538746 -6.06351183006e-05 0)
(0.865866459145 -7.4790747477e-05 0)
(0.865913411875 -9.23173760767e-05 0)
(0.865971550842 -0.000114022680056 0)
(0.866043540613 -0.000140907870168 0)
(0.866132689565 -0.000174223547844 0)
(0.866243097607 -0.00021552224418 0)
(0.866379844097 -0.000266727745902 0)
(0.866549234566 -0.000330238034739 0)
(0.866759092941 -0.00040904114399 0)
(0.867019128572 -0.000506859841012 0)
(0.867341409055 -0.000628348723405 0)
(0.867740940968 -0.000779335772561 0)
(0.868236400378 -0.000967134108029 0)
(0.868851067918 -0.00120096253052 0)
(0.86961400986 -0.00149249069433 0)
(0.870561588531 -0.00185656258815 0)
(0.871739413393 -0.00231219036452 0)
(0.873204870408 -0.00288393071895 0)
(0.875030458392 -0.00360383583205 0)
(0.877308241524 -0.00451429767557 0)
(0.880155853081 -0.00567232753937 0)
(0.883724779933 -0.00715627920641 0)
(0.888211992074 -0.00907689496627 0)
(0.893876391557 -0.0115963597263 0)
(0.90106204125 -0.0149628831007 0)
(0.910229769049 -0.0195759456142 0)
(0.92199510962 -0.0261124072177 0)
(0.937151210976 -0.0357692435287 0)
(0.956591844896 -0.0506971774817 0)
(0.980968591595 -0.0746420741681 0)
(1.00964185741 -0.11354899022 0)
(1.0367378879 -0.174355376405 0)
(1.02388346345 0.119321996683 0)
(1.08875437023 0.231514419071 0)
(1.13660483532 0.252868938505 0)
(1.15406272564 0.228905049375 0)
(1.15000112511 0.188337386052 0)
(1.1353762372 0.146577291434 0)
(1.11757777373 0.110164820522 0)
(1.10059199162 0.0808376064381 0)
(1.08612240507 0.058250200616 0)
(1.07458761054 0.0413417856861 0)
(1.06578678787 0.0289362833122 0)
(1.05928155811 0.0199770205997 0)
(1.05459132008 0.0135949302959 0)
(1.05128026207 0.00910742775814 0)
(1.04898735491 0.00599313361185 0)
(1.04742904472 0.00386144147586 0)
(1.0463904502 0.00242413662771 0)
(1.04571298043 0.00147134825281 0)
(1.04528204749 0.000852136143795 0)
(1.04501636442 0.000459263300149 0)
(1.04485924084 0.000217489571776 0)
(1.04477181036 7.47182636521e-05 0)
(1.04472782895 -4.64552911122e-06 0)
(1.0447099632 -4.44451938272e-05 0)
(1.04470703674 -6.05348159987e-05 0)
(1.04471195919 -6.3091784465e-05 0)
(1.04472039955 -5.85428476415e-05 0)
(1.04472984002 -5.081037668e-05 0)
(1.04473891309 -4.21793770317e-05 0)
(1.04474695916 -3.38929448248e-05 0)
(1.0447537372 -2.65486299174e-05 0)
(1.04475924314 -2.03626334907e-05 0)
(1.04476359393 -1.53382433722e-05 0)
(1.04476695466 -1.13685001493e-05 0)
(1.04476950072 -8.30136644733e-06 0)
(1.04477139733 -5.97691242758e-06 0)
(1.04477278779 -4.24460440479e-06 0)
(1.04477379153 -2.9728510807e-06 0)
(1.04477450558 -2.05276927444e-06 0)
(1.04477500579 -1.39655494593e-06 0)
(1.0447753503 -9.34911893647e-07 0)
(1.04477558323 -6.14740991785e-07 0)
(1.04477573742 -3.96140422464e-07 0)
(1.04477583666 -2.49227820369e-07 0)
(1.04477589774 -1.51710792648e-07 0)
(1.04477593319 -8.78642628261e-08 0)
(1.04477595219 -4.68901251754e-08 0)
(1.04477596012 -2.08835430284e-08 0)
(1.0447759604 -4.80990307867e-09 0)
(1.0447759558 4.05722656761e-09 0)
(1.04477594784 8.34911071062e-09 0)
(1.04477593763 1.02029660444e-08 0)
(1.04477592635 1.07685267472e-08 0)
(1.04477591452 1.08450641679e-08 0)
(1.04477590211 1.10819158592e-08 0)
(1.04477588925 1.13791883128e-08 0)
(1.04477587588 1.16941886721e-08 0)
(1.04477586148 1.1990917427e-08 0)
(1.04477584591 1.21170790996e-08 0)
(1.04477582948 1.19300593694e-08 0)
(1.04477581238 1.15864939179e-08 0)
(1.04477579448 1.15274243759e-08 0)
(1.04477577591 1.2032760277e-08 0)
(1.04477575662 1.30813032287e-08 0)
(1.04477573621 1.45345038223e-08 0)
(1.04477571451 1.60595219318e-08 0)
(1.04477569141 1.77198577582e-08 0)
(1.04477566671 1.98450252952e-08 0)
(1.04477564052 2.22604508062e-08 0)
(1.04477561261 2.50060056552e-08 0)
(1.04477558244 2.82439274731e-08 0)
(1.04477555041 3.16295879774e-08 0)
(1.04477551724 3.48489586029e-08 0)
(1.04477548284 3.8021712979e-08 0)
(1.04477544692 4.10414585743e-08 0)
(1.04477540955 4.38386983537e-08 0)
(1.04477537083 4.69358112237e-08 0)
(1.04477533092 5.06768318969e-08 0)
(1.04477528998 5.4884341316e-08 0)
(1.04477524762 5.97011006605e-08 0)
(1.04477520345 6.52728867027e-08 0)
(1.04477515798 7.07661414559e-08 0)
(1.04477511162 7.55085696697e-08 0)
(1.0447750638 8.00390910292e-08 0)
(1.04477501475 8.45998184084e-08 0)
(1.04477496568 8.87387230849e-08 0)
(1.04477491653 9.27161105849e-08 0)
(1.04477486672 9.68882176851e-08 0)
(1.04477481717 1.00853955678e-07 0)
(1.04477476888 1.0465339826e-07 0)
(1.04477472184 1.0853969108e-07 0)
(1.04477467648 1.11555143154e-07 0)
(1.04477463354 1.12757302987e-07 0)
(1.04477459336 1.12463729431e-07 0)
(1.04477455757 1.1022161713e-07 0)
(1.04477452886 1.0415915721e-07 0)
(1.04477450807 9.33382124089e-08 0)
(1.04477449584 7.7033027578e-08 0)
(1.0447744961 5.25230766434e-08 0)
(1.04477451302 1.69595506385e-08 0)
(1.04477454896 -3.10759310252e-08 0)
(1.04477460852 -9.4012276709e-08 0)
(1.04477469827 -1.75856622641e-07 0)
(1.04477482497 -2.79621407287e-07 0)
(1.04477499806 -4.0995560239e-07 0)
(1.04477522874 -5.73175073467e-07 0)
(1.04477552969 -7.760571012e-07 0)
(1.04477591833 -1.02769675062e-06 0)
(1.04477641643 -1.33919892384e-06 0)
(1.04477704937 -1.72255510947e-06 0)
(1.04477784755 -2.19353634254e-06 0)
(1.04477884799 -2.77303331647e-06 0)
(1.04478009887 -3.48660836404e-06 0)
(1.04478166093 -4.36661163412e-06 0)
(1.04478360635 -5.45212432056e-06 0)
(1.04478602506 -6.79143005505e-06 0)
(1.04478903067 -8.44534081426e-06 0)
(1.04479276197 -1.04869798651e-05 0)
(1.04479738936 -1.30060402671e-05 0)
(1.04480312592 -1.61158171274e-05 0)
(1.04481023569 -1.99560834962e-05 0)
(1.04481904452 -2.46990703955e-05 0)
(1.04482995763 -3.05600043024e-05 0)
(1.04484347749 -3.78085305626e-05 0)
(1.04486022163 -4.67786006581e-05 0)
(1.04488095523 -5.78825628661e-05 0)
(1.04490662814 -7.16313111492e-05 0)
(1.04493841186 -8.86521315193e-05 0)
(1.04497775787 -0.000109719817624 0)
(1.04502647147 -0.000135799691368 0)
(1.04508678765 -0.000168089505 0)
(1.04516146734 -0.000208071085964 0)
(1.04525393527 -0.000257587607798 0)
(1.04536843891 -0.000318929575029 0)
(1.04551023667 -0.000394937255796 0)
(1.04568584847 -0.000489144538574 0)
(1.04590336061 -0.000605953307068 0)
(1.0461727981 -0.000750846447058 0)
(1.04650660447 -0.000930670005925 0)
(1.04692023385 -0.00115398837358 0)
(1.04743288145 -0.00143153597959 0)
(1.04806841421 -0.00177681503287 0)
(1.0488565426 -0.00220687563923 0)
(1.04983429421 -0.00274334430001 0)
(1.05104788628 -0.00341381780142 0)
(1.05255510826 -0.00425376949048 0)
(1.0544283804 -0.00530921098275 0)