/*--------------------------------*- C++ -*----------------------------------*\
| =========                 |                                                 |
| \\      /  F ield         | OpenFOAM: The Open Source CFD Toolbox           |
|  \\    /   O peration     | Version:  2106                                  |
|   \\  /    A nd           | Website:  www.openfoam.com                      |
|    \\/     M anipulation  |                                                 |
\*---------------------------------------------------------------------------*/
FoamFile
{
    version     2.0;
    format      ascii;
    arch        "LSB;label=32;scalar=64";
    class       volVectorField;
    location    "0.24";
    object      U;
}
// * * * * * * * * * * * * * * * * * * * * * * * * * * * * * * * * * * * * * //

dimensions      [0 1 -1 0 0 0 0];

internalField   nonuniform List<vector> 
11200
(
(0.662462404421 0.150569442935 0)
(0.558948675863 0.103243388954 0)
(0.383850742509 0.0513512248652 0)
(0.283747603331 0.0248708558834 0)
(0.23207528144 0.0124170457752 0)
(0.20190860162 0.00662281730243 0)
(0.183197951405 0.00380291482937 0)
(0.171276510383 0.00231587043127 0)
(0.16351033107 0.00146450688336 0)
(0.158388796949 0.00094489271022 0)
(0.155006660463 0.00061517714634 0)
(0.152786707311 0.000402234002737 0)
(0.151346558762 0.000264232339651 0)
(0.15042832315 0.000175250176435 0)
(0.14985672023 0.000118360589582 0)
(0.149512520232 8.21597824295e-05 0)
(0.149314960986 5.88655889694e-05 0)
(0.149209600206 4.33152987193e-05 0)
(0.149159741763 3.29341644478e-05 0)
(0.149142502088 2.81856717693e-05 0)
(0.14914465686 2.76836450409e-05 0)
(0.149156930455 2.98893445884e-05 0)
(0.14917254917 3.30497782467e-05 0)
(0.149188093164 3.59654318678e-05 0)
(0.149202297999 3.86010016742e-05 0)
(0.149214563747 4.1040138048e-05 0)
(0.149224722728 4.33174791518e-05 0)
(0.149232881797 4.54641606839e-05 0)
(0.149239277613 4.75194400845e-05 0)
(0.149244192157 4.95303646818e-05 0)
(0.149247910479 5.15589632119e-05 0)
(0.149250699976 5.36962486439e-05 0)
(0.149252757738 5.60247947417e-05 0)
(0.149254254014 5.84061095706e-05 0)
(0.149255321388 6.07670792483e-05 0)
(0.149256046376 6.3088115045e-05 0)
(0.149256525863 6.53795063226e-05 0)
(0.149256843444 6.76541743563e-05 0)
(0.149257052698 6.9923725061e-05 0)
(0.149257182754 7.2194282269e-05 0)
(0.149257254516 7.44669336016e-05 0)
(0.149257285213 7.67426377478e-05 0)
(0.149257286987 7.90210751969e-05 0)
(0.149257268591 8.13011061091e-05 0)
(0.149257236238 8.35809882312e-05 0)
(0.149257194524 8.58583668221e-05 0)
(0.14925714742 8.81304522094e-05 0)
(0.149257098919 9.03941898526e-05 0)
(0.149257053345 9.26464863259e-05 0)
(0.149257015671 9.48843174366e-05 0)
(0.149256992635 9.71045959961e-05 0)
(0.149256993744 9.93044279137e-05 0)
(0.149257032028 0.000101480865513 0)
(0.149257125525 0.000103630574094 0)
(0.149257299683 0.000105749306227 0)
(0.149257590862 0.000107831417551 0)
(0.149258049579 0.000109870206584 0)
(0.149258749858 0.000111855732469 0)
(0.149259801086 0.000113775262905 0)
(0.14926136125 0.000115604490679 0)
(0.149263673739 0.000117288450576 0)
(0.149267146871 0.000118740638468 0)
(0.149272254519 0.000119999748645 0)
(0.149279641008 0.000121255898115 0)
(0.149290336783 0.000122967881233 0)
(0.149305861952 0.000125335167352 0)
(0.14932860053 0.000128116745103 0)
(0.149362248681 0.000131082876387 0)
(0.149412401131 0.000134016298522 0)
(0.149487292888 0.000136802047153 0)
(0.149598870735 0.000140714926642 0)
(0.149769976165 0.000151578013462 0)
(0.150038405403 0.000172327713819 0)
(0.150467365256 0.000202614882286 0)
(0.151192732166 0.000232579544301 0)
(0.152492342548 0.000191757176994 0)
(0.155022734967 -0.000217060855388 0)
(0.162379336044 -0.00211228477819 0)
(0.187722248615 -0.0107994943387 0)
(0.20443712085 -0.0497188178868 0)
(0.965408255117 0.289214707263 0)
(0.9619628616 0.25265604085 0)
(0.823574394717 0.15902144264 0)
(0.698139371909 0.0959957322851 0)
(0.610225466824 0.0582481152072 0)
(0.548971494354 0.0362148542166 0)
(0.506588890631 0.0231612861251 0)
(0.477567269261 0.0151375162923 0)
(0.457745490173 0.0100177561101 0)
(0.444228457067 0.00665814210346 0)
(0.435053292813 0.00441555713293 0)
(0.428873110309 0.0029068665776 0)
(0.424754191937 0.0018910589367 0)
(0.422046639954 0.0012100455824 0)
(0.420297800971 0.000757163348179 0)
(0.419193190283 0.000459255475787 0)
(0.418515583854 0.000265854096222 0)
(0.418116436013 0.000142398717454 0)
(0.417895831915 6.61085238761e-05 0)
(0.417786780704 2.30910576578e-05 0)
(0.417745366152 1.40618950921e-06 0)
(0.417742089254 -1.01645184325e-05 0)
(0.417756688023 -1.37159715844e-05 0)
(0.417778648128 -1.32693686463e-05 0)
(0.417802944318 -1.08370470471e-05 0)
(0.417826317272 -7.49386277654e-06 0)
(0.417847073637 -3.87738078664e-06 0)
(0.417864614698 -3.57706575232e-07 0)
(0.417878944302 2.86367723111e-06 0)
(0.417890377823 5.68285975337e-06 0)
(0.417899387057 8.03548567141e-06 0)
(0.417906465244 9.83707898597e-06 0)
(0.417911814312 1.1005690105e-05 0)
(0.417915668344 1.18579711919e-05 0)
(0.417918405062 1.26797685515e-05 0)
(0.41792029943 1.34364842067e-05 0)
(0.417921593809 1.4110312014e-05 0)
(0.41792247949 1.47255253098e-05 0)
(0.417923082629 1.53110929417e-05 0)
(0.417923474792 1.58805678421e-05 0)
(0.417923708669 1.64343435846e-05 0)
(0.417923827598 1.69774926454e-05 0)
(0.417923862242 1.75136477084e-05 0)
(0.417923835041 1.80461522472e-05 0)
(0.417923762094 1.85781299462e-05 0)
(0.417923655364 1.91119280422e-05 0)
(0.417923525122 1.96495256526e-05 0)
(0.417923381677 2.01929061751e-05 0)
(0.417923236389 2.07442691972e-05 0)
(0.417923102477 2.13053522352e-05 0)
(0.41792299765 2.18762979557e-05 0)
(0.417922946499 2.24573010532e-05 0)
(0.417922982401 2.30483884422e-05 0)
(0.417923151209 2.36491255207e-05 0)
(0.417923517308 2.42585232648e-05 0)
(0.417924173341 2.4875375144e-05 0)
(0.41792524923 2.54991033484e-05 0)
(0.417926935594 2.61171979905e-05 0)
(0.41792950955 2.67111977816e-05 0)
(0.417933359731 2.72511175253e-05 0)
(0.417939079107 2.76913381181e-05 0)
(0.417947764047 2.79729171554e-05 0)
(0.417960910632 2.82561366674e-05 0)
(0.417980649584 2.78233175179e-05 0)
(0.418009757702 2.52583599794e-05 0)
(0.418051840571 1.94592160013e-05 0)
(0.418113067133 9.62195972606e-06 0)
(0.418203557908 -5.78286023049e-06 0)
(0.418338923111 -2.92802605708e-05 0)
(0.418544073513 -6.45556655295e-05 0)
(0.418860937669 -0.000115810943128 0)
(0.419359181884 -0.000188031426786 0)
(0.420152388432 -0.000307927001926 0)
(0.42144442202 -0.00053313933232 0)
(0.42362735066 -0.00100063708149 0)
(0.427420734247 -0.00209251697023 0)
(0.434248563297 -0.00486153383875 0)
(0.448289925745 -0.0122677404491 0)
(0.474702775375 -0.0342808288832 0)
(0.478293683501 -0.0988939516493 0)
(1.02222096615 0.238416187235 0)
(1.08213753207 0.295926652914 0)
(1.03447723023 0.239503066837 0)
(0.954615414018 0.174290164949 0)
(0.87999206128 0.121345468936 0)
(0.818614441919 0.0830993846935 0)
(0.771410857488 0.0567316677555 0)
(0.736634398214 0.0387409692294 0)
(0.71162444089 0.0264327877364 0)
(0.693916630021 0.0179731054117 0)
(0.681541421357 0.012142448589 0)
(0.673000129982 0.0081249087179 0)
(0.667180665875 0.00536632139553 0)
(0.6632716967 0.00348444491439 0)
(0.660688526084 0.00221256146546 0)
(0.659014202177 0.00136338155929 0)
(0.657954521522 0.000805243335284 0)
(0.657304228731 0.000445915969314 0)
(0.656921810188 0.000221067645696 0)
(0.656710244624 8.55801040284e-05 0)
(0.656603380265 8.35659822587e-06 0)
(0.656561831169 -3.3721076676e-05 0)
(0.656557930472 -5.68555356772e-05 0)
(0.656571405834 -6.68745970679e-05 0)
(0.65659293517 -6.84819388432e-05 0)
(0.656616754945 -6.55603997612e-05 0)
(0.656639557878 -6.05493113249e-05 0)
(0.656659737117 -5.48593610592e-05 0)
(0.656676707394 -4.92750445157e-05 0)
(0.65669044651 -4.42033654651e-05 0)
(0.656701200824 -3.98392423921e-05 0)
(0.656709354634 -3.63012271679e-05 0)
(0.656715603874 -3.36950906985e-05 0)
(0.656720638778 -3.18564763989e-05 0)
(0.656724502601 -3.08102607786e-05 0)
(0.656727210451 -3.03034363664e-05 0)
(0.656729074383 -3.02481539087e-05 0)
(0.656730373833 -3.05590784341e-05 0)
(0.656731276077 -3.1086488978e-05 0)
(0.656731871 -3.17480532488e-05 0)
(0.656732232914 -3.2514227623e-05 0)
(0.656732427058 -3.33499371844e-05 0)
(0.656732498568 -3.42307036098e-05 0)
(0.656732481376 -3.51372314032e-05 0)
(0.656732399938 -3.60541471901e-05 0)
(0.656732272531 -3.69707554825e-05 0)
(0.656732115035 -3.78795604775e-05 0)
(0.656731943192 -3.87750366652e-05 0)
(0.656731773416 -3.96522070531e-05 0)
(0.656731623402 -4.05058749439e-05 0)
(0.656731517485 -4.13321854386e-05 0)
(0.65673149086 -4.21270245454e-05 0)
(0.656731591782 -4.28884992212e-05 0)
(0.656731887439 -4.36191818556e-05 0)
(0.656732473432 -4.43314017575e-05 0)
(0.65673348779 -4.50560309713e-05 0)
(0.656735116358 -4.58445772642e-05 0)
(0.656737630691 -4.67932465656e-05 0)
(0.656741438732 -4.80290218335e-05 0)
(0.656747139334 -4.97640344098e-05 0)
(0.656755648062 -5.24940783642e-05 0)
(0.656768610565 -5.72729144894e-05 0)
(0.656787383503 -6.48632535631e-05 0)
(0.656813398414 -7.61547853083e-05 0)
(0.656850446012 -9.28245630703e-05 0)
(0.656905234815 -0.000117287128022 0)
(0.656987168231 -0.000152742844449 0)
(0.657110040879 -0.000204480802887 0)
(0.657295677188 -0.000281031044271 0)
(0.657579496287 -0.000396288618108 0)
(0.658019682202 -0.000574638975954 0)
(0.658705535049 -0.000863409298817 0)
(0.65978429567 -0.00135279530974 0)
(0.661513853 -0.00221614117994 0)
(0.664337031488 -0.00381645500872 0)
(0.668950811749 -0.00695356977018 0)
(0.676383305919 -0.0133685768125 0)
(0.6886462309 -0.0268784512972 0)
(0.705304885645 -0.0563982142847 0)
(0.700609513837 -0.113265335866 0)
(1.02251475524 0.170807152481 0)
(1.10138975945 0.276496478663 0)
(1.11752426471 0.266664799488 0)
(1.09214661001 0.219901699314 0)
(1.05187816104 0.168168847984 0)
(1.0102082294 0.123567397032 0)
(0.973494695226 0.0888375219232 0)
(0.943864559501 0.0630063719678 0)
(0.921142801972 0.0442232045601 0)
(0.904284074003 0.0307423932469 0)
(0.892074869168 0.0211562946284 0)
(0.883404510385 0.0143954690084 0)
(0.877352670034 0.0096679486234 0)
(0.87319770703 0.00639383750443 0)
(0.870392930312 0.00415116496716 0)
(0.868534041605 0.00263449080311 0)
(0.867327644747 0.00162401695286 0)
(0.866564241557 0.00096267519774 0)
(0.866096484042 0.000539121247471 0)
(0.86582224172 0.000275152172045 0)
(0.865671398021 0.000117066824967 0)
(0.865595147752 2.87908974701e-05 0)
(0.865564090233 -1.93261445584e-05 0)
(0.86556128286 -4.12623831703e-05 0)
(0.865572627811 -4.76663506795e-05 0)
(0.865589635583 -4.55255599348e-05 0)
(0.865607947193 -3.91558472938e-05 0)
(0.86562528868 -3.1144727694e-05 0)
(0.865640576175 -2.29633408697e-05 0)
(0.865653442596 -1.53793366583e-05 0)
(0.865663919443 -8.72142999653e-06 0)
(0.865672210155 -3.04230475365e-06 0)
(0.865678567012 1.73634384832e-06 0)
(0.865683197587 5.46748102742e-06 0)
(0.865686519931 8.034222585e-06 0)
(0.865688921132 9.79103816213e-06 0)
(0.865690555957 1.114469551e-05 0)
(0.865691720808 1.22896504297e-05 0)
(0.865692591157 1.32587888085e-05 0)
(0.865693185543 1.41456104315e-05 0)
(0.865693552151 1.49413514389e-05 0)
(0.865693755327 1.56686733834e-05 0)
(0.865693833919 1.63430902178e-05 0)
(0.865693819303 1.6981113013e-05 0)
(0.86569373344 1.75973555411e-05 0)
(0.865693592236 1.82020911889e-05 0)
(0.86569341053 1.88031498951e-05 0)
(0.865693204869 1.94077138836e-05 0)
(0.865692995099 2.00252347272e-05 0)
(0.86569280373 2.0660590309e-05 0)
(0.865692660901 2.13006644758e-05 0)
(0.865692607629 2.19336445225e-05 0)
(0.865692697077 2.25433445217e-05 0)
(0.86569299909 2.3103784215e-05 0)
(0.865693605611 2.35761456559e-05 0)
(0.865694650262 2.39175261106e-05 0)
(0.865696313533 2.41079041382e-05 0)
(0.865698877718 2.40229872371e-05 0)
(0.865702752304 2.35061319038e-05 0)
(0.865708365158 2.21590120786e-05 0)
(0.865716121939 1.9395071784e-05 0)
(0.865727664182 1.45743868941e-05 0)
(0.86574560995 5.84419497343e-06 0)
(0.865772898302 -8.43536050991e-06 0)
(0.865813415911 -3.02578701999e-05 0)
(0.86587306946 -6.35569922156e-05 0)
(0.865961188375 -0.000115214183205 0)
(0.866092281563 -0.000196004015447 0)
(0.866288904057 -0.000323207335998 0)
(0.866585895544 -0.000525336950949 0)
(0.867036909125 -0.000851406986367 0)
(0.867727106034 -0.00138846852101 0)
(0.868793012189 -0.00228551086738 0)
(0.870448209216 -0.00381752880675 0)
(0.87301217157 -0.00650956281029 0)
(0.876884797348 -0.0113726136733 0)
(0.882390178177 -0.0202790279277 0)
(0.889713702195 -0.0365061687844 0)
(0.89641235195 -0.0655990857538 0)
(0.886612324086 -0.110254254367 0)
(1.0128787514 0.11896102347 0)
(1.08820670902 0.231806937158 0)
(1.13741367293 0.25310676516 0)
(1.15409086923 0.228992754313 0)
(1.14994211058 0.188368359801 0)
(1.13538465591 0.146579845044 0)
(1.11758894865 0.110150966772 0)
(1.10059500204 0.0808162231609 0)
(1.08612457071 0.0582265774039 0)
(1.07459092364 0.0413189859428 0)
(1.06579146562 0.0289160211087 0)
(1.05928798779 0.0199601007937 0)
(1.05459976267 0.013581560835 0)
(1.05129076465 0.00909744378097 0)
(1.04899984701 0.00598615443661 0)
(1.04744340406 0.00385696675581 0)
(1.04640653087 0.00242159812626 0)
(1.04573061581 0.00147015016834 0)
(1.04530106059 0.000851701839128 0)
(1.04503656354 0.000459016162279 0)
(1.04488020116 0.000216756657463 0)
(1.04479258527 7.30175999493e-05 0)
(1.04474872082 -5.50416055822e-06 0)
(1.04473182248 -4.40082658577e-05 0)
(1.04472957315 -5.93852282208e-05 0)
(1.04473505885 -6.17186630081e-05 0)
(1.04474400881 -5.72448402873e-05 0)
(1.04475389508 -4.98027089759e-05 0)
(1.04476333802 -4.16433633406e-05 0)
(1.04477166742 -3.39877809462e-05 0)
(1.04477863284 -2.74222953812e-05 0)
(1.04478422157 -2.21503772657e-05 0)
(1.04478857964 -1.81270467416e-05 0)
(1.04479191804 -1.51383660587e-05 0)
(1.04479449158 -1.28069410412e-05 0)
(1.04479659383 -1.10104706562e-05 0)
(1.04479833589 -9.52112373731e-06 0)
(1.04479966317 -8.23113586034e-06 0)
(1.04480064579 -7.21195249754e-06 0)
(1.04480133466 -6.54298885947e-06 0)
(1.0448017516 -6.16309789747e-06 0)
(1.04480198332 -5.9539280822e-06 0)
(1.04480207541 -5.86516506591e-06 0)
(1.04480206623 -5.84654262205e-06 0)
(1.04480198039 -5.85798337063e-06 0)
(1.04480183559 -5.87990109616e-06 0)
(1.04480164984 -5.90288780765e-06 0)
(1.04480144498 -5.92379438493e-06 0)
(1.04480124099 -5.94861130022e-06 0)
(1.04480104372 -5.98299744608e-06 0)
(1.04480087271 -6.01192896417e-06 0)
(1.04480077185 -6.03430622648e-06 0)
(1.04480079396 -6.05648816232e-06 0)
(1.04480101053 -6.09254132073e-06 0)
(1.04480153548 -6.1757103802e-06 0)
(1.04480256926 -6.40328196735e-06 0)
(1.04480429695 -7.0479606678e-06 0)
(1.04480697914 -8.3872795806e-06 0)
(1.04481094248 -1.09032441092e-05 0)
(1.04481664903 -1.4712875447e-05 0)
(1.04482513159 -1.96724073031e-05 0)
(1.04483753608 -2.58504343869e-05 0)
(1.0448551003 -3.55741670824e-05 0)
(1.04488014294 -5.1817443479e-05 0)
(1.04491613241 -7.88109625434e-05 0)
(1.04496820999 -0.000122809897629 0)
(1.04504397262 -0.000193595748832 0)
(1.04515476179 -0.000306762011258 0)
(1.04531771902 -0.000487501924613 0)
(1.04555871183 -0.000776893577623 0)
(1.04591644808 -0.00124235414175 0)
(1.04644883923 -0.00199568419099 0)
(1.0472401052 -0.00322772987325 0)
(1.04840339839 -0.00526982830236 0)
(1.05006639182 -0.00869983806979 0)
(1.05228630761 -0.0145133761126 0)
(1.05481988719 -0.024320954379 0)
(1.05687815197 -0.0404388306448 0)
(1.05575464979 -0.0657171990922 0)
(1.0421461384 -0.0996756968527 0)
(1.00447483485 0.0814039975905 0)
(1.0691723738 0.181288539245 0)
(1.13080568776 0.216950419272 0)
(1.17375000504 0.210789156179 0)
(1.19865265341 0.183690077545 0)
(1.21019988199 0.149751683996 0)
(1.21350255981 0.116779144706 0)
(1.21251724304 0.0882206783697 0)
(1.20973098573 0.0650481512799 0)
(1.20651119912 0.0470209091177 0)
(1.20351913625 0.0334068086466 0)
(1.20101145547 0.0233557325761 0)
(1.1990344553 0.016072013816 0)
(1.19753878404 0.0108795136422 0)
(1.19644131961 0.00723418793744 0)
(1.19565559095 0.00471351833133 0)
(1.19510489526 0.00299762894757 0)
(1.19472648244 0.00184916076075 0)
(1.19447150166 0.00109496040268 0)
(1.19430319161 0.000610611455827 0)
(1.1941945526 0.000307986799764 0)
(1.19412626826 0.000125768918505 0)
(1.19408521882 2.22237620624e-05 0)
(1.19406196036 -3.24511225194e-05 0)
(1.19404966044 -5.72695658016e-05 0)
(1.19404416222 -6.45950456845e-05 0)
(1.19404266493 -6.237291779e-05 0)
(1.19404335017 -5.5518091367e-05 0)
(1.19404510229 -4.69409331745e-05 0)
(1.19404726307 -3.82548850634e-05 0)
(1.19404946008 -3.02610037112e-05 0)
(1.19405150121 -2.32642624325e-05 0)
(1.19405331735 -1.72882237984e-05 0)
(1.19405490281 -1.22593262589e-05 0)
(1.1940562738 -8.07106664315e-06 0)
(1.19405744949 -4.66944023838e-06 0)
(1.19405840215 -2.05836662713e-06 0)
(1.1940590783 -1.68907620567e-07 0)
(1.1940594375 1.14852221868e-06 0)
(1.19405955589 2.00524564503e-06 0)
(1.19405961451 2.68491964575e-06 0)
(1.19405964914 3.28951508305e-06 0)
(1.19405963444 3.8188079827e-06 0)
(1.19405958706 4.28126700058e-06 0)
(1.1940595015 4.68899430682e-06 0)
(1.19405936837 5.05887574905e-06 0)
(1.19405918965 5.40272491071e-06 0)
(1.19405897079 5.72263986233e-06 0)
(1.19405872641 6.00776575162e-06 0)
(1.1940584986 6.25038322953e-06 0)
(1.19405832762 6.47266001902e-06 0)
(1.19405824352 6.66643985106e-06 0)
(1.19405829603 6.80540742094e-06 0)
(1.19405854635 6.84941278533e-06 0)
(1.19405903878 6.74147398353e-06 0)
(1.1940597419 6.39815723311e-06 0)
(1.19406072614 5.64821757568e-06 0)
(1.19406215527 4.15568542585e-06 0)
(1.19406464026 1.44323749028e-06 0)
(1.19406922964 -2.73839538176e-06 0)
(1.19407654439 -9.15884823031e-06 0)
(1.19408648624 -1.92332146671e-05 0)
(1.19409977025 -3.49531493682e-05 0)
(1.19411838469 -5.9230317677e-05 0)
(1.19414445732 -9.66490181858e-05 0)
(1.19418079818 -0.000154527371091 0)
(1.19423138625 -0.000244522268493 0)
(1.19430184171 -0.000385129789834 0)
(1.1944000314 -0.000605842611134 0)
(1.19453671424 -0.000954063676473 0)
(1.19472593452 -0.00150643125408 0)
(1.19498446232 -0.00238740857952 0)
(1.19532710292 -0.00380058765966 0)
(1.19575113332 -0.00607954841915 0)
(1.19619625767 -0.00976425937202 0)
(1.19644273037 -0.0157004911147 0)
(1.19590348464 -0.0251025052009 0)
(1.19342304024 -0.0394315339262 0)
(1.18666346465 -0.0599391792402 0)
(1.1700988642 -0.0853269998725 0)
(0.998962325751 0.0544316253953 0)
(1.05310956869 0.133401608002 0)
(1.11628268266 0.170777558769 0)
(1.17301272015 0.175143872639 0)
(1.21791246342 0.159583606946 0)
(1.25049858026 0.134951020698 0)
(1.27288491303 0.108411657411 0)
(1.28776722312 0.0838849723798 0)
(1.29745268202 0.0630565728918 0)
(1.3036607528 0.0462999219169 0)
(1.30759234642 0.033320515368 0)
(1.31005370501 0.0235495245898 0)
(1.31157362991 0.0163599083244 0)
(1.31249493376 0.0111713156378 0)
(1.31303862806 0.00749150705857 0)
(1.31334672109 0.00492448604399 0)
(1.31351013656 0.00316295508064 0)
(1.31358676819 0.00197475139497 0)
(1.31361314641 0.0011881961159 0)
(1.31361199901 0.000678628279237 0)
(1.31359716375 0.000357007334775 0)
(1.31357684524 0.000160753042771 0)
(1.31355585376 4.64684149359e-05 0)
(1.31353656141 -1.58698052168e-05 0)
(1.31351990682 -4.60579933789e-05 0)
(1.31350622177 -5.70676608417e-05 0)
(1.3134953213 -5.73220214621e-05 0)
(1.31348686831 -5.20831946087e-05 0)
(1.31348047462 -4.45205436524e-05 0)
(1.31347575504 -3.64584849807e-05 0)
(1.31347235848 -2.88700763125e-05 0)
(1.31346998185 -2.22087984514e-05 0)
(1.31346836553 -1.66261106078e-05 0)
(1.31346728124 -1.21294752163e-05 0)
(1.31346656347 -8.65309190103e-06 0)
(1.31346611477 -6.09541035304e-06 0)
(1.31346583386 -4.31922351343e-06 0)
(1.31346563133 -3.11689352861e-06 0)
(1.31346550504 -2.25870548228e-06 0)
(1.31346554069 -1.54050931728e-06 0)
(1.3134657 -9.63800699936e-07 0)
(1.31346580462 -5.49333516321e-07 0)
(1.31346580332 -1.8691644835e-07 0)
(1.31346572839 1.51847607312e-07 0)
(1.31346560162 4.65191372909e-07 0)
(1.31346543507 7.62053515311e-07 0)
(1.31346523172 1.05477389035e-06 0)
(1.31346499358 1.35501453225e-06 0)
(1.31346473252 1.67518246909e-06 0)
(1.31346448177 2.01151919835e-06 0)
(1.31346426103 2.31579055395e-06 0)
(1.31346407769 2.55174384924e-06 0)
(1.31346396223 2.67581289061e-06 0)
(1.31346396626 2.62423164294e-06 0)
(1.31346417556 2.30883899994e-06 0)
(1.31346470888 1.63399918345e-06 0)
(1.31346556601 5.5490736187e-07 0)
(1.31346677618 -1.13270736576e-06 0)
(1.31346877236 -3.58936530444e-06 0)
(1.31347182018 -7.54409058183e-06 0)
(1.31347608134 -1.43009782886e-05 0)
(1.3134817905 -2.54552834859e-05 0)
(1.31348921148 -4.25878595762e-05 0)
(1.31349882548 -6.88610864941e-05 0)
(1.3135109445 -0.000109303281478 0)
(1.31352563688 -0.000171661474247 0)
(1.31354250749 -0.000268028728148 0)
(1.31356022757 -0.000417369144066 0)
(1.31357557343 -0.000649524850994 0)
(1.31358159205 -0.00101178166306 0)
(1.31356420296 -0.00157926774534 0)
(1.31349590326 -0.00247115910546 0)
(1.31332232536 -0.00387503423876 0)
(1.31293572531 -0.00608383667147 0)
(1.31212583223 -0.0095430235487 0)
(1.31048678694 -0.0148957591166 0)
(1.30726426507 -0.0229729748706 0)
(1.3012467564 -0.0346192322035 0)
(1.29056277515 -0.050277999246 0)
(1.27173304761 -0.0687303741326 0)
(0.995736074271 0.0346338598851 0)
(1.04179514478 0.0905689214111 0)
(1.10222838968 0.121549565406 0)
(1.16491412051 0.129605834614 0)
(1.22202566891 0.122009269016 0)
(1.26951892735 0.10601993898 0)
(1.30680224625 0.0870975566327 0)
(1.3349953635 0.068636681766 0)
(1.35574478628 0.0523698397542 0)
(1.37069618121 0.0389256186668 0)
(1.38128277082 0.0282980740493 0)
(1.38866269439 0.0201712777389 0)
(1.3937303523 0.0141175108593 0)
(1.39715662788 0.00970533632194 0)
(1.3994343709 0.00655059539517 0)
(1.40091969425 0.00433445457509 0)
(1.40186624212 0.00280414461777 0)
(1.40245226438 0.00176574263465 0)
(1.40280136393 0.00107419453728 0)
(1.40299806297 0.000623234394499 0)
(1.4030992867 0.000336408621297 0)
(1.4031427428 0.000159622664205 0)
(1.4031530064 5.51639476056e-05 0)
(1.40314552079 -2.99805811426e-06 0)
(1.40312976501 -3.21220577866e-05 0)
(1.40311136696 -4.38891579407e-05 0)
(1.40309333365 -4.57589902567e-05 0)
(1.40307718968 -4.24166710574e-05 0)
(1.40306353659 -3.67256690753e-05 0)
(1.40305244811 -3.03627654255e-05 0)
(1.40304372244 -2.42425904202e-05 0)
(1.40303703416 -1.88122520465e-05 0)
(1.40303202196 -1.42401856399e-05 0)
(1.40302833584 -1.05284808e-05 0)
(1.40302567784 -7.57645576014e-06 0)
(1.4030238157 -5.25925935648e-06 0)
(1.40302257287 -3.45402644326e-06 0)
(1.40302179867 -2.01703715066e-06 0)
(1.40302132738 -8.43760959326e-07 0)
(1.40302096369 8.92685663395e-08 0)
(1.40302064064 7.99699992232e-07 0)
(1.40302044105 1.29034163806e-06 0)
(1.40302035111 1.66367014906e-06 0)
(1.40302027804 1.98566096104e-06 0)
(1.40302018757 2.29360052339e-06 0)
(1.40302007275 2.60560122752e-06 0)
(1.40301993199 2.9311407187e-06 0)
(1.40301976704 3.27519824935e-06 0)
(1.40301957804 3.63915339899e-06 0)
(1.40301935751 4.01128453183e-06 0)
(1.40301911803 4.35097780456e-06 0)
(1.40301889299 4.62785511987e-06 0)
(1.40301870996 4.80412166487e-06 0)
(1.40301859481 4.82277562964e-06 0)
(1.40301856753 4.59639986494e-06 0)
(1.40301863129 3.9821447395e-06 0)
(1.40301876705 2.77472682481e-06 0)
(1.40301903508 8.54030308881e-07 0)
(1.40301961981 -2.12685937259e-06 0)
(1.40302064046 -7.01357811168e-06 0)
(1.40302203033 -1.45867805241e-05 0)
(1.40302345118 -2.61607171407e-05 0)
(1.40302440526 -4.3576957301e-05 0)
(1.40302413853 -6.98111052583e-05 0)
(1.40302115204 -0.000109448248521 0)
(1.40301268697 -0.000169513478865 0)
(1.40299392076 -0.000260892934353 0)
(1.40295664593 -0.000400451252327 0)
(1.402886866 -0.000614256626614 0)
(1.40276077471 -0.000942973545389 0)
(1.40253829923 -0.00145006165912 0)
(1.40215294851 -0.00223398310894 0)
(1.40149285498 -0.00344408188789 0)
(1.40036927618 -0.00530458328639 0)
(1.39846829965 -0.0081390941813 0)
(1.39527571364 -0.0123837269684 0)
(1.3899766548 -0.018551524315 0)
(1.38142002235 -0.0270833510061 0)
(1.36810486861 -0.0380653061669 0)
(1.34763105794 -0.0506103727107 0)
(0.994011531462 0.0192358060725 0)
(1.03484763674 0.0523338402066 0)
(1.09199262892 0.0723631274173 0)
(1.15662420286 0.0791292320589 0)
(1.22032116774 0.0761045464517 0)
(1.27701945864 0.0673339716228 0)
(1.3242441967 0.0561509037552 0)
(1.36181574552 0.0447990113715 0)
(1.39068531935 0.0345303781044 0)
(1.4122607632 0.0258814330902 0)
(1.42801823624 0.0189465246896 0)
(1.43929885656 0.0135849827704 0)
(1.44722809095 0.00955653486028 0)
(1.45270414791 0.00660011582026 0)
(1.45641897442 0.0044741904461 0)
(1.458891462 0.00297351347603 0)
(1.46050232905 0.00193276856394 0)
(1.46152572852 0.00122369363219 0)
(1.46215574718 0.000749550437766 0)
(1.46252757503 0.000439017758656 0)
(1.46273385539 0.000240521328467 0)
(1.46283700151 0.000117412343093 0)
(1.4628783075 4.40500896024e-05 0)
(1.46288455011 2.69183969616e-06 0)
(1.46287242931 -1.84430393227e-05 0)
(1.46285208169 -2.74365974955e-05 0)
(1.46282953431 -2.94362017419e-05 0)
(1.46280800008 -2.76859725353e-05 0)
(1.46278900682 -2.41837697362e-05 0)
(1.46277309892 -2.01107972476e-05 0)
(1.46276026759 -1.61157078063e-05 0)
(1.46275021845 -1.25212785661e-05 0)
(1.4627425408 -9.45410215497e-06 0)
(1.46273680239 -6.92501530081e-06 0)
(1.46273260448 -4.88024813908e-06 0)
(1.46272960471 -3.25045064469e-06 0)
(1.46272751466 -1.97257000859e-06 0)
(1.46272607723 -1.00549442769e-06 0)
(1.4627250813 -3.03960640046e-07 0)
(1.46272446202 2.19622929048e-07 0)
(1.46272410527 7.03781012061e-07 0)
(1.46272386218 1.18292508673e-06 0)
(1.46272370051 1.61061421406e-06 0)
(1.4627235806 1.99420382622e-06 0)
(1.46272347299 2.35504756968e-06 0)
(1.46272335852 2.70670375235e-06 0)
(1.46272322359 3.05477344784e-06 0)
(1.46272305948 3.39746151737e-06 0)
(1.46272286149 3.7256425193e-06 0)
(1.46272262686 4.02806823789e-06 0)
(1.46272235861 4.29727125662e-06 0)
(1.46272206414 4.50176124337e-06 0)
(1.46272174996 4.59117705096e-06 0)
(1.46272142473 4.496152172e-06 0)
(1.46272110163 4.12575772549e-06 0)
(1.46272080014 3.36771823007e-06 0)
(1.46272052704 2.10157480832e-06 0)
(1.46272017415 2.4352964543e-07 0)
(1.46271955563 -2.51746443979e-06 0)
(1.46271855292 -6.97056020057e-06 0)
(1.46271691292 -1.39147230489e-05 0)
(1.46271395524 -2.44481979192e-05 0)
(1.46270854892 -4.01067698975e-05 0)
(1.4626988757 -6.32628325358e-05 0)
(1.46268186341 -9.7509973015e-05 0)
(1.46265234389 -0.000148226428092 0)
(1.46260179491 -0.000223613591923 0)
(1.46251644095 -0.000336103895069 0)
(1.46237373299 -0.000504285425709 0)
(1.46213667943 -0.000756623947411 0)
(1.4617453009 -0.00113706518865 0)
(1.46110480351 -0.0017130091691 0)
(1.46006357177 -0.00258045277539 0)
(1.458380066 -0.00387929612947 0)
(1.45567947443 -0.00580241123281 0)
(1.45139493673 -0.00859371341665 0)
(1.44470374131 -0.0125146120807 0)
(1.43453318724 -0.0177473965967 0)
(1.41961820434 -0.0242428071261 0)
(1.39810434576 -0.031457801115 0)
(0.993269667426 0.00617014998191 0)
(1.03158100074 0.0171020455813 0)
(1.08672181995 0.0239906483478 0)
(1.15174554736 0.0265606657078 0)
(1.21823536688 0.0258180588929 0)
(1.27925774678 0.0230488863478 0)
(1.3314013665 0.019365631814 0)
(1.3737759958 0.0155468584504 0)
(1.40691054423 0.012044930828 0)
(1.43203314629 0.00906640044436 0)
(1.45060216246 0.00666059551805 0)
(1.46402987251 0.00479009226116 0)
(1.47355017625 0.00337842912381 0)
(1.48017565093 0.00233873897443 0)
(1.48470230678 0.00158891484718 0)
(1.48773622598 0.00105828987461 0)
(1.48972736689 0.000689463771403 0)
(1.49100280051 0.000437639473125 0)
(1.4917958845 0.000268886929412 0)
(1.49227025934 0.000158112468533 0)
(1.49253875578 8.71262440263e-05 0)
(1.49267783695 4.29767374911e-05 0)
(1.49273837524 1.65870553406e-05 0)
(1.492753554 1.66676998471e-06 0)
(1.49274432188 -6.06570010221e-06 0)
(1.49272353852 -9.41061838997e-06 0)
(1.49269889907 -1.02164493813e-05 0)
(1.49267463158 -9.65283871212e-06 0)
(1.4926528335 -8.43855504132e-06 0)
(1.49263434633 -6.99157464085e-06 0)
(1.49261929273 -5.55210345449e-06 0)
(1.49260741046 -4.24017864274e-06 0)
(1.49259826993 -3.10321981836e-06 0)
(1.49259139555 -2.14739089892e-06 0)
(1.49258633328 -1.35651204703e-06 0)
(1.4925826829 -7.0878616806e-07 0)
(1.49258010867 -1.82772353625e-07 0)
(1.49257834078 2.43577198895e-07 0)
(1.4925771729 6.16787412555e-07 0)
(1.4925764275 9.8751540771e-07 0)
(1.49257595129 1.29462308143e-06 0)
(1.4925756521 1.58194532753e-06 0)
(1.49257547236 1.86664244532e-06 0)
(1.49257535935 2.15908106233e-06 0)
(1.4925752739 2.46658303323e-06 0)
(1.49257518963 2.7920875622e-06 0)
(1.49257508792 3.13517105477e-06 0)
(1.4925749553 3.49204420776e-06 0)
(1.49257478153 3.85449280283e-06 0)
(1.4925745579 4.20885249525e-06 0)
(1.49257427858 4.53565866906e-06 0)
(1.49257393958 4.80319739185e-06 0)
(1.49257353438 4.96732112646e-06 0)
(1.49257305162 4.96788481787e-06 0)
(1.49257247082 4.72268465311e-06 0)
(1.49257176305 4.11855014427e-06 0)
(1.49257091733 3.00631954439e-06 0)
(1.49256980801 1.24671417716e-06 0)
(1.49256800237 -1.35663363987e-06 0)
(1.49256518261 -5.33175477733e-06 0)
(1.49256097263 -1.13004199351e-05 0)
(1.49255435836 -2.00211832079e-05 0)
(1.4925437133 -3.25644332867e-05 0)
(1.49252648202 -5.04729064826e-05 0)
(1.4924985457 -7.59317983674e-05 0)
(1.49245316347 -0.000111928419116 0)
(1.492379462 -0.000162877400705 0)
(1.49226038324 -0.00023517702658 0)
(1.49206843493 -0.000337278766438 0)
(1.49175873472 -0.000481869649459 0)
(1.49125919045 -0.000689620302375 0)
(1.49046088225 -0.000993131390393 0)
(1.48919358984 -0.0014250969178 0)
(1.48719085565 -0.00203330404795 0)
(1.48405325348 -0.00287923003558 0)
(1.47919927461 -0.00403052976828 0)
(1.47181942136 -0.00554179440302 0)
(1.46089612647 -0.00741503863825 0)
(1.44527606754 -0.00955695122246 0)
(1.42334059665 -0.0117198454384 0)
(0.993270465213 -0.0061684024265 0)
(1.03158098328 -0.0171003767761 0)
(1.08672175356 -0.0239897624608 0)
(1.15174558494 -0.026560247611 0)
(1.21823544468 -0.0258179937068 0)
(1.27925784874 -0.0230491105595 0)
(1.33140149247 -0.019366047414 0)