/*--------------------------------*- C++ -*----------------------------------*\
| =========                 |                                                 |
| \\      /  F ield         | OpenFOAM: The Open Source CFD Toolbox           |
|  \\    /   O peration     | Version:  2106                                  |
|   \\  /    A nd           | Website:  www.openfoam.com                      |
|    \\/     M anipulation  |                                                 |
\*---------------------------------------------------------------------------*/
FoamFile
{
    version     2.0;
    format      ascii;
    arch        "LSB;label=32;scalar=64";
    class       volScalarField;
    location    "0.2";
    object      p;
}
// * * * * * * * * * * * * * * * * * * * * * * * * * * * * * * * * * * * * * //

dimensions      [0 2 -2 0 0 0 0];

internalField   nonuniform List<scalar> 
11200
(
149.58893199
146.660330238
145.546479418
145.019148295
144.651818857
144.357040969
144.095397912
143.846860451
143.602343302
143.357276769
143.108963668
142.855649269
142.596101531
142.329384843
142.054732321
141.771470534
141.478973663
141.176635728
140.863857923
140.540052042
140.204594407
139.856835985
139.496118432
139.1217739
138.733116814
138.329445865
137.910044842
137.474183308
137.021117339
136.550090157
136.060332707
135.551064166
135.021492072
134.470812536
133.898210914
133.30286298
132.683934773
132.040582803
131.371954468
130.677188481
129.955415175
129.205756719
128.427327306
127.619233238
126.78057287
125.910436381
125.00790532
124.072051862
123.1019377
122.096612488
121.055111707
119.976453821
118.859636547
117.703632058
116.507380816
115.269783742
113.98969228
112.665895891
111.297106264
109.88193744
108.418880783
106.906273529
105.342258186
103.724734163
102.051291413
100.319124875
98.5249241159
96.6647291101
94.7337357228
92.7260292557
90.6342206782
88.4489506266
86.1580209204
83.7452458055
81.1885410817
78.4562502504
75.5007797174
72.2495698871
68.5489709826
63.7858782132
147.795890054
146.437715954
145.646744511
145.146730296
144.755742327
144.431860249
144.147339771
143.882738374
143.627251531
143.374730799
143.121348823
142.864591977
142.60272318
142.334465933
142.05881978
141.774949882
141.482118835
141.179643808
140.866866351
140.543124658
140.207768483
139.860122359
139.499542576
139.125360998
138.736881625
138.333397422
137.914189343
137.478525124
137.025659551
136.554834863
136.065281008
135.556215606
135.026844333
134.476366948
133.903970757
133.308831549
132.690115093
132.046977851
131.378567243
130.684022054
129.962472763
129.213041756
128.434843541
127.626984852
126.788564613
125.918673747
125.016394754
124.080801017
123.110955757
122.105910536
121.064703217
119.986355219
118.869867948
117.714218151
116.518351976
115.281177402
114.001554635
112.678284005
111.310090703
109.895605681
108.433341759
106.92166382
105.35874807
103.742531765
102.07064733
100.340353572
98.548435133
96.6910547083
94.7635729295
92.7603051051
90.6741824026
88.4962484767
86.2149557828
83.8151685938
81.2764919103
78.5704178046
75.6561478876
72.4758444421
68.9267081334
64.8138134228
146.800699783
146.146499383
145.594143698
145.156526071
144.784902566
144.462801326
144.173702164
143.903469179
143.643007333
143.386527721
143.130145319
142.871178388
142.607714848
142.338327696
142.061895834
141.777490624
141.484302423
141.181592637
140.868662974
140.544836592
140.209451409
139.861867844
139.501341901
139.127219908
138.738809775
138.335401908
137.91627496
137.480695582
137.027918257
136.557185452
136.067727995
135.558765766
135.029507835
134.479146788
133.906864836
133.311840158
132.693239665
132.050220337
131.381930443
130.687509605
129.966089158
129.216792415
128.438734984
127.631024903
126.792762669
125.923041114
125.020945068
124.085550763
123.11592491
122.111123366
121.070189269
119.992150503
118.876016387
117.720773355
116.525379394
115.288756944
114.009783916
112.687282477
111.320004792
109.906615046
108.445666189
106.935571305
105.374566707
103.760682781
102.091682457
100.364972692
98.5775116799
96.7257007895
94.8052258903
92.8108484286
90.7361187779
88.5729740691
86.3113193115
83.9382383372
81.4370094325
78.7857708096
75.9565452162
72.9177097951
69.6332759421
66.0801996298
146.250938598
145.887557277
145.487659277
145.118668873
144.781052241
144.472949901
144.187586736
143.916883063
143.654511488
143.395845006
143.137465552
142.876841549
142.612073132
142.341693004
142.064525064
141.779586776
141.486021814
141.183053983
140.869956158
140.546028426
140.210579859
139.862920293
139.502408524
139.128321406
138.739948215
138.336581234
137.917498867
137.481966533
137.02923759
136.558553495
136.069143905
135.5602269
135.03100982
134.480690969
133.908460196
133.313491951
132.69495412
132.052004446
131.383790215
130.689451508
129.968120459
129.218921396
128.440971372
127.633380286
126.795250971
125.925679158
125.023753249
124.088553863
123.119153062
122.114613176
121.073985167
119.996306491
118.880598181
117.725861002
116.531070544
115.295171039
114.017067478
112.695615367
111.329607808
109.917759202
108.458687651
106.950896784
105.392724604
103.78231267
102.11755918
100.396065239
98.6150555729
96.7712781948
94.8608801094
92.8792514744
90.8208353026
88.6789020906
86.4452200273
84.1097467951
81.6603925256
79.0830572436
76.3629924676
73.4904862246
70.4691304552
67.3360943798
145.916890688
145.685095228
145.383682845
145.072705773
144.767866229
144.475842813
144.196867279
143.927741371
143.664781467
143.404697405
143.144728748
142.88263805
142.616632765
142.345263793
142.067334421
141.781827669
141.487850899
141.1845949
140.871304362
140.547256689
140.211747011
139.864079014
139.503556357
139.129468446
138.741118131
138.337789076
137.918754452
137.483277264
137.030609529
136.559992142
136.070654852
135.561816412
135.032684667
134.482456268
133.910317301
133.315444053
132.697001981
132.054149014
131.386035762
130.691802732
129.970584555
129.221507884
128.443692218
127.636250242
126.79828805
125.92890523
125.027194805
124.092242962
123.123128459
122.118921995
121.078685028
120.001467646
118.886306261
117.732220419
116.538208582
115.303242522
114.026259633
112.706156125
111.341774694
109.931894923
108.475215086
106.970322187
105.415680057
103.809593969
102.150170317
100.435267297
98.6624374449
96.8288588585
94.9312520612
92.9657828925
90.9279546467
88.8125026836
86.6133184747
84.3234830586
81.9355750941
79.4425843047
76.8403127365
74.1332009922
71.3426082009
68.5192306388
145.713498247
145.537596229
145.296401542
145.029075853
144.751888979
144.475250793
144.203561243
143.9370598
143.674294905
143.413286469
143.151999566
142.888567126
142.621363666
142.348998339
142.070278238
141.784165651
141.489738536
141.186157497
140.872639804
140.548439671
140.212833708
139.865110046
139.504559289
139.130471704
138.742136717
138.338833568
137.919832778
137.484395309
137.031771673
136.561201517
136.0719136
135.56312584
135.034045517
134.483869411
133.911784241
133.31696732
132.698587164
132.055803511
131.387767636
130.693623907
129.97250782
129.223546753
128.445862295
127.638569684
126.800778431
125.931592678
125.030111096
124.09542679
123.12662711
122.122792895
121.082997522
120.006305906
118.891772507
117.738438852
116.545330356
115.311452526
114.03578714
112.717282599
111.354847057
109.947333347
108.493524264
106.992126769
105.441757626
103.840900938
102.187889627
100.480873896
98.7177829481
96.8962832079
95.0137348729
93.06715229
91.0531794798
88.9681048763
86.8079623453
84.5688108112
82.2473655381
79.8422750621
77.3566077049
74.8025197172
72.2069632826
69.617042809
145.59038152
145.434773964
145.228472322
144.991910504
144.736435771
144.473156931
144.208544551
143.945036966
143.68290494
143.421320627
143.158949987
142.894316501
142.625990385
142.352663082
142.073162415
141.786440799
141.491553306
141.187634108
140.873875191
140.549508651
140.213792671
139.866000829
139.505414293
139.131315523
138.742985652
138.33969895
137.920723089
137.485316843
137.03272921
136.562198981
136.072954522
135.56421373
135.035184133
134.485063255
133.913039018
133.318289642
132.699984066
132.057282845
131.389338164
130.695293595
129.974284532
129.225442175
128.447892524
127.640755156
126.803144344
125.934169515
125.032935719
124.098543841
123.130090643
122.126668492
121.087364841
120.011261968
118.897435525
117.744952868
116.552870788
115.320232211
114.046061405
112.729363491
111.369114309
109.964251167
108.513673911
107.016222845
105.470668855
103.875699443
102.229902869
100.531749971
98.7795765191
96.971568792
95.1057572499
93.1800276708
91.1921661203
89.1399667272
87.0214507125
84.8352861886
82.5815429934
80.2629803995
77.887150192
75.4696558677
73.0373808547
70.6296926204
145.51630191
145.366291904
145.179536576
144.963431715
144.723726417
144.470906198
144.212270382
143.95153375
143.690168861
143.428249312
143.165034232
142.899400179
142.63010663
142.355932334
142.075733771
141.788461092
141.493152798
141.188921563
140.874937839
140.550414457
140.214593447
139.866735466
139.506111568
139.131996187
138.743665601
138.340389093
137.921431576
137.48604978
137.03349135
136.562994274
136.073786525
135.56508593
135.0361002
134.486027101
133.914054723
133.319361766
132.701118004
132.058484457
131.390614281
130.696653959
129.975745086
129.227020977
128.449608325
127.642630202
126.805205603
125.93644982
125.035475008
124.101390635
123.133303847
122.130319838
121.091542035
120.016071424
118.903006377
117.751441964
116.560468916
115.329172215
114.056628742
112.741907171
111.384056073
109.982109546
108.535075713
107.041934768
105.501632305
103.913071545
102.275108158
100.586546798
98.8461421039
97.0526082421
95.2046440018
93.3009847427
91.3404986892
89.3223559825
87.2463120051
85.1131804075
82.9255764756
80.689036679
78.4136021059
76.115884736
73.8205748486
71.5596930119
145.474025607
145.324578083
145.148162927
144.944425481
144.71489391
144.469186959
144.214828704
143.956192335
143.695487829
143.433396157
143.169601406
142.903245699
142.633237493
142.358428132
142.077700868
141.790007506
141.494376007
141.189903836
140.875745648
140.551099878
140.215196363
139.867285874
139.506631754
139.132503414
138.744169676
138.340899829
137.921955681
137.486592226
137.034056134
136.563584839
136.074406045
135.565737574
135.03678735
134.486753526
133.914824757
133.320180562
132.701991814
132.059421309
131.391624596
130.697750253
129.97693863
129.228326694
128.451046175
127.644224522
126.806985794
125.938451491
125.037741346
124.103974075
123.136268095
122.133742165
121.095515961
120.02071059
118.908448963
117.757855987
116.568058592
115.338185538
114.06736705
112.754732688
111.399415523
110.000546045
108.557252891
107.068662459
105.533898903
103.952085462
102.322349073
100.643829433
98.9156961417
97.137177887
95.307611961
93.4265257384
91.4937650618
89.5096970502
87.4755185977
85.3937227207
83.268758147
81.1079242313
78.9224774233
76.7288378607
74.5490619546
72.4093426969
145.454749223
145.304871539
145.132909067
144.934974455
144.710414326
144.46829679
144.216163501
143.958656719
143.698331997
143.436173451
143.1720858
142.905353286
142.634966304
142.359817364
142.078805798
141.79088541
141.495079145
141.190476621
140.876224147
140.551512459
140.215564831
139.867626696
139.506957157
139.132822321
138.74448967
138.34122577
137.922291493
137.486941119
137.034420898
136.563968142
136.07481054
135.566166115
135.037243161
134.487240381
133.915347172
133.320744013
132.702602945
132.060088087
131.392356136
130.698557039
129.977835579
129.229331093
128.452178593
127.645509839
126.808454236
125.940139789
125.039694103
124.106245439
123.138923801
122.136862042
121.099196978
120.025070503
118.913630734
117.764033186
116.575442032
115.347031442
114.077987174
112.767505809
111.414801116
110.019104424
108.579663347
107.095751217
105.566671646
103.991766827
102.370430926
100.702129775
98.9864309771
97.2230476665
95.4119053505
93.5532412335
91.6477486642
89.6967965952
87.7027290379
85.6693006515
83.6022213112
81.5098403969
79.4038885615
77.3001293294
75.2182659031
73.1802377901
145.454751856
145.30488765
145.132936123
144.93501074
144.71045907
144.468349153
144.216222561
143.958721648
143.698402097
143.436248145
143.172164625
142.905435884
142.635052409
142.359906792
142.078898439
141.790981219
141.495178125
141.190578831
140.876329695
140.551621506
140.215677601
139.867743491
139.50707837
139.132948463
138.744621434
138.341363886
137.922436881
137.487094918
137.034584498
136.564143091
136.074998854
135.566370249
135.037466087
134.487485706
133.915619267
133.321048163
132.70294553
132.060476854
131.39280066
130.699069252
129.978429505
129.230023754
128.452990752
127.646466745
126.809586555
125.941484753
125.041296919
124.108160993
123.141218726
122.139617217
121.102510564
120.029061644
118.918444053
117.769844213
116.582463773
115.355522231
114.088260035
112.779940749
111.429859796
110.037345459
108.601766541
107.122540154
105.599145086
104.031135607
102.418161645
100.759995071
99.0565682341
97.3080313279
95.5148312129
93.6778206578
91.7984466379
89.8789684636
87.9225207967
85.9337321566
83.9191198637
81.8875891351
79.8509328737
77.824177626
75.8252388213
73.8732233297
145.47403356
145.324626788
145.148244699
144.944535082
144.715028996
144.469344819
144.215006529
143.956387658
143.695698569
143.433620594
143.169838161
142.903493705
142.633495963
142.358696522
142.077978849
141.790294938
141.494672918
141.190210404
140.876062199
140.551426897
140.215534521
139.867636061
139.506995118
139.132881505
138.744564473
138.341313515
137.92239097
137.487052435
137.034545301
136.564107844
136.074968849
135.566347417
135.037453025
134.48748574
133.915636558
133.321087852
132.703013925
132.060581661
131.392951255
130.699277021
129.978708287
129.230390395
128.453465756
127.647075026
126.810358376
125.942456863
125.04251394
124.109677098
123.143099667
122.141942781
121.105377559
120.032587511
118.922771252
117.775145542
116.588948725
115.363444859
114.097928327
112.791728949
111.444217891
110.054819363
108.623019935
107.148373575
105.630523243
104.069220444
102.4643505
100.81597081
99.1243792851
97.3901416861
95.6141493165
93.7977797947
91.9429929753
90.0525155621
88.1303047444
86.1816158855
84.2134439918
82.2349463673
80.2578026791
78.2964258587
76.3675452672
74.4886158341
145.516315366
145.366374325
145.179674711
144.963616469
144.72395368
144.471171281
144.212568513
143.951860785
143.690521328
143.428624354
143.16542957
142.899814057
142.630537753
142.356379815
142.076197076
141.788940002
141.493647373
141.18943211
140.875464911
140.550958867
140.215156334
139.867318316
139.506716203
139.132625243
138.744321954
138.341076508
137.922154555
137.486813773
137.034302982
136.563861591
136.074719295
135.566095998
135.037201943
134.487237983
133.915395967
133.320859245
132.702803267
132.06039628
131.392800104
130.699171016
129.978660728
129.230417463
128.453587141
127.647314675
126.810745396
125.943026617
125.043309374
124.110750354
123.144514024
122.143775018
121.107720806
120.035554701
118.926499281
117.77980039
116.594731445
115.370598906
114.106748369
112.802571936
111.45751636
110.071093452
108.642894903
107.172607654
105.660032451
104.105110172
102.507954283
100.868874712
99.1884166891
97.4674593318
95.7073204637
93.9098107545
92.0773832464
90.2133011031
88.3218719824
86.4086995973
84.4810047309
82.5479618299
80.6210164568
78.7141216677
76.8434207491
75.025842507
145.590400846
145.434892239
145.228669888
144.992173807
144.736758611
144.473532431
144.208965853
143.945498203
143.683401242
143.421848023
143.159505326
142.894897367
142.626595003
142.353290237
142.073811383
141.787111284
141.492245388
141.188348207
140.874612049
140.550269362
140.214578768
139.866814396
139.506257973
139.132192724
138.7439004
138.34065635
137.921729319
137.486379363
137.033857084
136.563403244
136.074248605
135.565613967
135.036710383
134.486739499
133.914893999
133.320358158
132.702308501
132.059914566
131.39233974
130.698742181
129.978275858
129.230091703
128.453338914
127.647166383
126.81072427
125.943165747
125.04364896
124.111339203
123.145411375
122.145052739
121.109466052
120.037873152
118.92951898
117.783676458
116.599651773
115.376790844
114.114486864
112.812189274
111.46941439
110.085758082
108.660909532
107.194673259
105.686987796
104.137952171
102.547859416
100.91725247
99.24696373
97.5381743534
95.7924953347
94.012069563
92.1996955467
90.3589734194
88.4944839436
86.6120017011
84.718756675
82.8237335738
80.9380145459
79.0751734251
77.2512293403
75.4836045425
145.713524103
145.537754055
145.296663728
145.029423475
144.752313265
144.475742361
144.204111008
143.937660135
143.674939566
143.41397041
143.152718819
142.889318664
142.622145276
142.349808512
142.071116074
141.785030773
141.490631001
141.18707773
140.87358855
140.549417985
140.21384292
139.866152082
139.505638618
139.131594174
138.743306923
138.340057268
137.921117389
137.485749896
137.033207291
136.56273176
136.073555162
135.564899204
135.035975749
134.485987223
133.914127121
133.319580576
132.701525046
132.059131182
131.391563731
130.69798255
129.977543706
129.229400676
128.452705718
127.64661139
126.810272256
125.942846813
125.043499644
124.111403842
123.145743755
122.145718088
121.110543429
120.039458337
118.931728003
117.786649673
116.603559017
115.381837479
114.120921156
112.820310883
111.479584357
110.098410851
108.676568373
107.213964075
105.710659497
104.166901004
102.583154767
100.960149005
99.298926913
97.6009106297
95.8679746177
94.1025316495
92.3076364173
90.4871064393
88.6456646066
86.7891011732
84.9244768702
83.0603846244
81.2073389514
79.3784217381
77.5896687738
75.8597632226
145.916923757
145.685297464
145.384016132
145.073144712
144.768398788
144.476456684
144.197551002
143.928485558
143.665578566
143.405541396
143.145614941
142.883562908
142.617593747
142.346259229
142.068363406
141.782889958
141.488946785
141.185725045
140.872469599
140.548458068
140.212986078
139.865356913
139.504875123
139.13084145
138.742549314
138.339284185
137.920321691
137.484926911
137.032354148
136.561846906
136.07263805
135.56395011
135.034995692
134.484977955
133.913091165
133.318521336
132.700446925
132.058039685
131.390465561
130.696885734
129.976457825
129.228337354
128.451679169
127.645639018
126.809375369
125.942051457
125.042837577
124.110913695
123.145472442
122.145722565
121.110892847
120.040236514
118.933036562
117.788611629
116.60632327
115.385583905
114.125865933
112.826714458
111.487760426
110.108736414
108.689495581
107.230034325
105.730518833
104.191316735
102.613034543
100.996561814
99.3431216315
97.6543304389
95.9322668906
94.1795485584
92.3994168417
90.5958292538
88.7735591747
86.9383027306
85.0968101256
83.257073466
81.4287117302
79.6238767939
77.858083931
76.151189365
146.250978902
145.887807594
145.488066177
145.119199516
144.781690638
144.473680341
144.188395274
143.917758606
143.655445271
143.396830141
143.138496743
142.877914867
142.613185844
142.342843465
142.065712667
141.780811949
141.487286034
141.184359709
140.871306351
140.547426932
140.212035778
139.864449304
139.503983455
139.129945544
138.741635387
138.338342751
137.919346361
137.483913583
137.031300267
136.560750968
136.071499358
135.562768621
135.033771861
134.483712653
133.911785695
133.317177623
132.699067807
132.056629009
131.38902834
130.69542862
129.974989495
129.226868063
128.450221308
127.644207608
126.807988577
125.940731259
125.04161059
124.109812222
123.144535759
122.144998241
121.110438305
120.040121132
118.933344218
117.789443673
116.607802002
115.387857086
114.12911346
112.831153221
111.493651071
110.116391784
108.699290401
107.242416038
105.746019834
104.210567794
102.636779038
101.02567024
99.3786061423
97.6973566301
95.9841592104
94.2417858585
92.4736120811
90.6836840693
88.8767772561
87.0584420659
85.2350412285
83.4137889869
81.6029832751
79.8129985391
78.0570430285
76.3537556021
146.800752133
146.146811938
145.594634229
145.157153746
144.785647712
144.463644948
144.174628097
143.904464866
143.64406295
143.387635562
143.131299409
142.872374173
142.60894894
142.339597687
142.063200182
141.778828692
141.485674837
141.183002149
140.870114713
140.546337077
140.211001153
139.863436661
139.502964654
139.128904929
138.740562046
138.337229018
137.918187113
137.482705543
137.030041648
136.559440969
136.070137904
135.561356258
135.032309716
134.482202403
133.910229519
133.315577841
132.697425863
132.054947608
131.387311103
130.693679699
129.973213628
129.225072152
128.448414177
127.642400202
126.806194412
125.938966942
125.039896437
124.108172957
123.143001259
122.143604778
121.109230266
120.039152516
118.932680418
117.789163866
116.608001809
115.38865153
114.130639729
112.833576848
111.497171189
110.12124723
108.705766942
107.250854735
105.756826581
104.224223776
102.653851733
101.046824157
99.4046125754
97.7291006715
96.0226416139
94.2881209947
92.5290121216
90.7494246067
88.9541307856
87.1485587542
85.3387244205
83.531013033
81.7320801545
79.9494752868
78.190299864
76.4632112686
147.795989827
146.438174033
145.647427633
145.147585638
144.756746772
144.432993013
144.148583844
143.884080678
143.628681852
143.376241085
143.12293271
142.866244373
142.604439855
142.336243106
142.06065371
141.776836484
141.48405315
141.18161919
140.868877364
140.545179008
140.209864701
139.862284895
139.50178767
139.127689663
138.739299203
138.335912676
137.916812995
137.481268339
137.028537743
136.557868267
136.068494925
135.559641854
135.030523013
134.480342816
133.908296835
133.313572764
132.69535196
132.052807375
131.385107148
130.691415534
129.970893909
129.222702074
128.445999954
127.639949449
126.803716455
125.936473184
125.037400809
124.105692489
123.140556779
122.141221615
121.106938855
120.036989667
118.93069057
117.787400742
116.60653036
115.387550656
114.130005474
112.83352371
111.497836485
110.122795561
108.708395109
107.254797192
105.762361339
104.231678732
102.663611357
101.059336385
99.4203953083
97.7487457299
96.046814813
94.3175763977
92.5645782452
90.7919884361
89.0046116417
87.2078651439
85.407645617
83.6098185355
81.8199120183
80.042684798
78.2729390343
76.4810841754
149.589098412
146.661000797
145.54747319
145.020403082
144.653304424
144.358732691
144.097277199
143.848913737
143.604560682
143.35965119
143.111490416
142.858325663
142.598926798
142.332360153
142.057860892
141.774757684
141.482426715
141.180263351
140.867665049
140.544024369
140.20873587
139.861159832
139.500627323
139.12647311
138.738015058
138.33455397
137.915376023
137.479756223
137.026952196
136.556209527
136.066763261
135.55783769
135.028646847
134.478395182
133.906278267
133.311483511
132.693191106
132.050575023
131.382804042
130.689042769
129.968452959
129.220195038
128.443429651
127.637319503
126.801031427
125.933738741
125.034623945
124.10288179
123.137722715
122.138376973
121.104099202
120.034173938
118.927921699
117.784706422
116.603943918
115.38511194
114.127761983
112.831533109
111.49616809
110.121532363
108.707636275
107.254661015
105.762988671
104.233236881
102.666298362
101.06338542
99.4260795516
97.7563885587
96.0568082652
94.3303446704
92.5806029848
90.8118202486
89.0288856626
87.2373183394
85.4431662145
83.6529315022
81.8730421927
80.1083036173
78.3383125024
76.4384853058
56.3904409811
52.8385548831
50.4473391254
48.4904345921
46.8192265321
45.3635026973
44.0792058588
42.9365255456
41.9136703951
40.9937760943
40.1633325075
39.4112546586
38.728291382
38.1066260004
37.5395904128
37.0214510903
36.5472435576
36.1126414014
35.7138511103
35.3475272788
35.0107043487
34.7007416204
34.4152789064
34.152199862
33.9096006133
33.6857631777
33.4791340044
33.2883066536
33.1120059689
32.9490724133
32.7984485047
32.6591684611
32.5303487158
32.4111783643
32.3009122946
32.1988653988
32.1044019247
32.0169286336
31.9359115676
31.8609433868
31.7917643246
31.727799982
31.6686168768
31.6139606156
31.5632192561
31.5164010608
31.4729064745
31.4327121255
31.3954869731
31.3610176629
31.3290811594
31.2994786828
31.2720286349
31.2465573579
31.222906602
31.2009325847
31.1805009462
31.1614855613
31.1437691846
31.1272431032
31.1118072802
31.0973716503
31.0838520411
31.0711689703
31.0592485262
31.048023491
31.0374329869
31.0274211961
31.0179363862
31.008931423
31.0003668258
30.9922010806
30.9843937748
30.97691219
30.9697263974
30.9628045974
30.9561200548
30.9496536271
30.943399099
30.9373222749
30.9314006966
30.92561675
30.9199549773
30.9144014631
30.9089436515
30.9035701662
30.8982706228
30.8930355019
30.8878561095
30.8827244914
30.8776334069
30.8725762437
30.8675469745
30.8625400869
30.8575505285
30.8525736682
30.8476052816
30.8426414988
30.8376787355
30.8327136083
30.8277428374
30.8227632408
30.8177717451
30.8127654367
30.8077415774
30.8026975866
30.7976309978
30.7925394425
30.7874207719
30.7822731281
30.7770949567
30.7718848888
30.7666416147
30.7613637778
30.7560499771
30.7506987748
30.7453088128
30.7398788477
30.7344075839
30.7288934214
30.7233348073
30.7177312103
30.7120840949
30.7063964924
30.7006717014
30.6949132152
30.6891265635
30.6833199945
30.6775026832
30.6716844926
30.6658784941
30.6601010885
30.6543691018
30.6487001353
30.6431156001
30.6376356152
30.632278287
30.6270679292
30.6220291146
30.6171410104
30.6126178302
30.6087083713
30.6051332267
30.6019058719
30.5982005885
30.5908388383
30.5723082514
30.5219374947
30.4006596838
30.138844674
29.6317938444
28.7460098034
27.3456251688
25.3325131816
22.6759412382
19.430223065
15.7168022682
11.5123487897
6.54306159764
1.55142152596
59.5719841576
55.5191377654
52.8074374185
50.6556747937
48.8546291825
47.305851623
45.9510496422
44.7528800631
43.6850507655
42.7278121618
41.8657252249
41.086370673
40.3795498245
39.7367593269
39.1508242199
38.61563096
38.1259258539
37.6771588415
37.2653610188
36.8870472403
36.5391388654
36.2189024434
35.9239006819
35.6519523271
35.4010980546
35.1695717768
34.9557781564
34.7582743282
34.5757529867
34.4070257095
34.2510092013
34.1067157231
33.9732429224
33.8497640941
33.7355245499
33.6298352843
33.5320610711
33.4416180465
33.3579674824
33.2805782507
33.2088619304
33.1425176565
33.0811000875
33.0243513172
32.9717311598
32.9231359364
32.8780534099
32.8363787459
32.7977892096
32.7620449192
32.7289309724
32.6982465055
32.6698028155
32.643421464
32.6189473238
32.5962247711
32.5751103532
32.5554720226
32.5371887382
32.520150224
32.5042537327
32.4893999759
32.4755008097
32.4624742629
32.4502434497
32.438738742
32.4278976289
32.4176623601
32.4079766046
32.3987878563
32.3900449079
32.3817071475
32.3737399564
32.3661080524
32.3587782561
32.3517221702
32.3449119701
32.338320915
32.3319249811
32.3257062277
32.3196479392
32.3137335218
32.3079474631
32.3022755591
32.2967049075
32.2912237718
32.285821435
32.2804880561
32.2752146495
32.269992981
32.2648155491
32.2596754927
32.2545665379
32.2494829244
32.2444193595
32.2393709757
32.2343333086
32.229302269
32.2242740287
32.2192449678
32.2142115396
32.2091702929
32.2041178615
32.1990510458
32.1939668169
32.1888622702
32.1837346155
32.1785811531
32.173399375
32.1681871033
32.1629424544
32.1576636955
32.1523491713
32.1469971159
32.1416057849
32.1361733353
32.1306979718
32.1251781199
32.1196122227
32.1139982182
32.1083340772
32.1026190179
32.0968545691
32.0910436113
32.0851889551
32.0792938513
32.0733640659
32.0674084192
32.0614356851
32.055455807
32.0494826932
32.0435333734
32.0376240429
32.0317724145
32.0260001612
32.0203252873
32.0147637216
32.0093406166
32.0040672982
31.9987884845
31.9941530025
31.9896291033
31.9852582547
31.9807510656
31.9747681436
31.9631590711
31.9365288777
31.8711616323
31.7232205885
31.4171564911
30.8425558668
29.8630812779
28.345735879
26.2018493852
23.4125156755
20.0368763229
16.1943341029
11.8761167865
6.82244745484
1.68156702123
61.7796125195
57.8460954297
54.9792753092
52.6960079288
50.7950079024
49.169748049
47.7551108013
46.5089701227
45.4017864337
44.4115853568
43.5213752911
42.7176336409
41.9893652969
41.3274838893
40.7243821055
40.1736216211
39.6697015278
39.20788108
38.7840421551
38.3945811314
38.0363240034
37.7064593856
37.4024851994
37.1221653555
36.863493585
36.6246636195
36.404045485
36.2001654785
36.0116881233
35.8373997733
35.6761947381
35.5270643184
35.3890860118
35.261414022
35.1432741692
35.0339549035
34.9327960612
34.8391888779
34.7525736809
34.6724380842
34.5982777609
34.5295454973
34.4659129772
34.4070938594
34.3526273891
34.3022811981
34.2556429474
34.2125116628
34.1725945044
34.1356349633
34.101407097
34.06970112
34.0403223386
34.0130849724
33.9878120243
33.9643531657
33.9425636568
33.9223081915
33.903460455
33.8859015258
33.8695230098
33.8542302236
33.8399308065
33.8265377913
33.8139721511
33.8021620194
33.7910387865
33.780539629
33.7706115755
33.76120404
33.7522700033
33.7437651733
33.7356485224
33.7278829705
33.7204343248
33.7132716235
33.7063664841
33.6996933998
33.6932295146
33.6869525398
33.6808425744
33.6748816019
33.6690532523
33.6633426472
33.6577362876
33.6522218993
33.6467882907
33.6414252116
33.6361233152
33.6308740379
33.6256695748
33.62050279
33.6153671532
33.6102566707
33.6051658428
33.600089614
33.5950233498
33.5899627882
33.5849039353
33.5798430032
33.5747762966
33.5697002201
33.5646112784
33.5595061355
33.5543816078
33.5492346227
33.5440622295
33.5388615764
33.5336300174
33.5283651771
33.5230649333
33.5177272663
33.512350231
33.5069317981
33.5014699303
33.4959625041
33.4904074014
33.4848026452
33.4791462757
33.4734360309
33.4676699484
33.4618473199
33.4559692266
33.4500377407
33.4440553337
33.4380255631
33.43195421
33.4258493589
33.4197196888
33.4135761905
33.4074332619
33.4013064552
33.3952123059
33.3891693714
33.3831970157
33.3773099089
33.3715246825
33.3658647458
33.3603661229
33.355204312
33.3497262885
33.3445272477
33.339244882
33.333246256
33.3246431865
33.3082280217
33.2728398313
33.1914912161
33.0159020617
32.6650290026
32.0235246214
30.9531414008
29.3242473427
27.0570037394
24.1426322945
20.6432734813
16.6749395145
12.2426188891
7.1015152602
1.80950418584
63.5839458007
59.8592956256
56.9557106548
54.6012640281
52.6321982437
50.9491133771
49.4867569102
48.2011364016
47.0608886832
46.0425784056
45.128102544
44.3031077663
43.5559808105