/*--------------------------------*- C++ -*----------------------------------*\
| =========                 |                                                 |
| \\      /  F ield         | OpenFOAM: The Open Source CFD Toolbox           |
|  \\    /   O peration     | Version:  2106                                  |
|   \\  /    A nd           | Website:  www.openfoam.com                      |
|    \\/     M anipulation  |                                                 |
\*---------------------------------------------------------------------------*/
FoamFile
{
    version     2.0;
    format      ascii;
    arch        "LSB;label=32;scalar=64";
    class       surfaceScalarField;
    location    "0.2";
    object      phi;
}
// * * * * * * * * * * * * * * * * * * * * * * * * * * * * * * * * * * * * * //

dimensions      [0 3 -1 0 0 0 0];

oriented        oriented;

internalField   nonuniform List<scalar> 
22100
(
3.38461203999e-05
1.61538796036e-05
2.24572100434e-05
1.13889104014e-05
1.62585532421e-05
6.19865683961e-06
1.27977763322e-05
3.46077694988e-06
1.08046425197e-05
1.99313384848e-06
9.60458955802e-06
1.20005299909e-06
8.85132186378e-06
7.53267732004e-07
8.36435311424e-06
4.8696878583e-07
8.04433529926e-06
3.20017851847e-07
7.83284056866e-06
2.1149476637e-07
7.69339746449e-06
1.39443138884e-07
7.60224062942e-06
9.11568701356e-08
7.5434778874e-06
5.87627766836e-08
7.50634099713e-06
3.71369235542e-08
7.48350149634e-06
2.28395324959e-08
7.46998066528e-06
1.35208608991e-08
7.46241601672e-06
7.56467545455e-09
7.45854793566e-06
3.8681052913e-09
7.45682889486e-06
1.71906309489e-09
7.45642219641e-06
4.0672149742e-10
7.45677194481e-06
-3.49724515178e-10
7.45745804984e-06
-6.86079382961e-10
7.45821632139e-06
-7.58245534414e-10
7.45894156142e-06
-7.252147018e-10
7.45958581871e-06
-6.44232958862e-10
7.46012971385e-06
-5.43871568418e-10
7.46057180417e-06
-4.42066787297e-10
7.46092054637e-06
-3.48718297672e-10
7.46118884974e-06
-2.68279095689e-10
7.4613908034e-06
-2.01928963084e-10
7.46153978365e-06
-1.48955309375e-10
7.46164748911e-06
-1.07680622975e-10
7.461723649e-06
-7.6135761793e-11
7.46177639146e-06
-5.27194665481e-11
7.46180966702e-06
-3.32532890828e-11
7.46182846756e-06
-1.87781684336e-11
7.46183755951e-06
-9.06937346487e-12
7.46184038198e-06
-2.79871206952e-12
7.46183887814e-06
1.52791039682e-12
7.46183418431e-06
4.71791879371e-12
7.46182723438e-06
6.97404271989e-12
7.4618186346e-06
8.62437147175e-12
7.46180875535e-06
9.90536742826e-12
7.46179777052e-06
1.10144474947e-11
7.46178568293e-06
1.2121946482e-11
7.46177236706e-06
1.33549692072e-11
7.46175759259e-06
1.48156883141e-11
7.46174103213e-06
1.66005520426e-11
7.46172225034e-06
1.88195367452e-11
7.46170071406e-06
2.1573432719e-11
7.46167581402e-06
2.49419166118e-11
7.46164684407e-06
2.90215262495e-11
7.4616130003e-06
3.39053856942e-11
7.46157340202e-06
3.96641237524e-11
7.4615271458e-06
4.6320024705e-11
7.46147338467e-06
5.38208404731e-11
7.46141138822e-06
6.20560325017e-11
7.46134094171e-06
7.05121787079e-11
7.46126272173e-06
7.82983351917e-11
7.46117909132e-06
8.37164624629e-11
7.46109596209e-06
8.3172064235e-11
7.46102590337e-06
7.01654213751e-11
7.4609768683e-06
4.9091736458e-11
7.46096762132e-06
9.32842688867e-12
7.46103398624e-06
-6.62964090731e-11
7.46123423025e-06
-2.0014958104e-10
7.46166294674e-06
-4.28590623478e-10
7.46247044027e-06
-8.07368427571e-10
7.46389251563e-06
-1.42196667242e-09
7.46628564549e-06
-2.39302605575e-09
7.47010073495e-06
-3.81497478785e-09
7.47655188775e-06
-6.451024369e-09
7.48733557365e-06
-1.07835521929e-08
7.50554116962e-06
-1.82054637721e-08
7.53879050256e-06
-3.32491950463e-08
7.60814201022e-06
-6.93513499823e-08
7.77513278688e-06
-1.66990595421e-07
8.23095493073e-06
-4.55821941362e-07
9.70171479527e-06
-1.47075963977e-06
-5.46539351553e-06
1.51671085376e-05
5.02175949406e-05
1.59362847093e-05
4.42441118424e-05
1.73623935785e-05
3.77795018359e-05
1.2663266915e-05
3.2646144462e-05
8.59413439454e-06
2.89380924408e-05
5.70118593734e-06
2.63596221321e-05
3.77852337467e-06
2.45875178147e-05
2.52537211777e-06
2.33734758536e-05
1.70101081316e-06
2.25435269097e-05
1.14996686124e-06
2.19782183387e-05
7.76803402509e-07
2.15955159328e-05
5.22145608995e-07
2.13387394958e-05
3.4793337046e-07
2.11684981023e-05
2.290042325e-07
2.10573406193e-05
1.4829446817e-07
2.09861528291e-05
9.40273852213e-08
2.0941680572e-05
5.79931825097e-08
2.09147988773e-05
3.4446436832e-08
2.08992998977e-05
1.93671514633e-08
2.08910762353e-05
9.94279001063e-09
2.08872760493e-05
4.2069684633e-09
2.08862071044e-05
7.19278754698e-10
2.08864528761e-05
-9.31794862375e-10
2.08873243431e-05
-1.62965757952e-09
2.08884638656e-05
-1.86468367825e-09
2.08896372158e-05
-1.81753072299e-09
2.08907202315e-05
-1.62683502087e-09
2.08916578582e-05
-1.3796410847e-09
2.08924354259e-05
-1.12623327037e-09
2.08930607016e-05
-8.93501986087e-10
2.08935529033e-05
-6.9407784883e-10
2.08939368081e-05
-5.32807887272e-10
2.08942384107e-05
-4.0923167463e-10
2.08944494546e-05
-2.87129123477e-10
2.08945965909e-05
-1.99806299312e-10
2.08946970355e-05
-1.33648328169e-10
2.08947624881e-05
-8.41807684789e-11
2.08948031131e-05
-4.9643072515e-11
2.08948270808e-05
-2.67148605321e-11
2.08948392037e-05
-1.05435124439e-11
2.08948424127e-05
1.55969755075e-12
2.08948391206e-05
1.03172447569e-11
2.0894830989e-05
1.68094206293e-11
2.08948191569e-05
2.17958973864e-11
2.0894804335e-05
2.59013669267e-11
2.08947868856e-05
2.96422769594e-11
2.08947669349e-05
3.33801988885e-11
2.08947444509e-05
3.73736546804e-11
2.08947192942e-05
4.18284003972e-11
2.08946912348e-05
4.69519128501e-11
2.08946600018e-05
5.28894274165e-11
2.08946253607e-05
5.96821821249e-11
2.08945871389e-05
6.7356248795e-11
2.08945453114e-05
7.58508688847e-11
2.08945001387e-05
8.49510945436e-11
2.0894452408e-05
9.41608403632e-11
2.0894403837e-05
1.02504631826e-10
2.08943575609e-05
1.08454560553e-10
2.08943193248e-05
1.08874068793e-10
2.08942985181e-05
9.92259121542e-11
2.08943101783e-05
7.22404204106e-11
2.0894380286e-05
1.31486810922e-11
2.0894558507e-05
-1.07924451241e-10
2.0894912777e-05
-3.05044322168e-10
2.08955608802e-05
-6.38590201109e-10
2.08966151019e-05
-1.12031792233e-09
2.08982478229e-05
-1.83267539805e-09
2.09008178378e-05
-2.99841894493e-09
2.09048742608e-05
-4.86360757963e-09
2.09112883571e-05
-7.83587183596e-09
2.09214876135e-05
-1.25920750005e-08
2.09379691468e-05
-2.02962821247e-08
2.0964890008e-05
-3.33716480325e-08
2.10092101414e-05
-5.51034425852e-08
2.10841415197e-05
-9.31365917293e-08
2.12156862474e-05
-1.64793668155e-07
2.1456910689e-05
-3.10575557621e-07
2.19160268369e-05
-6.26106580877e-07
2.28057741546e-05
-1.34556926176e-06
2.44556277116e-05
-3.12061334302e-06
-7.06165283647e-06
2.60518882327e-05
5.35171054096e-05
1.24191793406e-05
5.29349685219e-05
1.79445305353e-05
4.96538404333e-05
1.59443950647e-05
4.58401818584e-05
1.24077930316e-05
4.24400929329e-05
9.10127492394e-06
3.9729173046e-05
6.48944332161e-06
3.76873066439e-05
4.56723857988e-06
3.61976638931e-05
3.19065362291e-06
3.51326133378e-05
2.21501747489e-06
3.43823683665e-05
1.52704843141e-06
3.38606274657e-05
1.04388656657e-06
3.35023473068e-05
7.06213585288e-07
3.32596024867e-05
4.71749106619e-07
3.30975922611e-05
3.10304745125e-07
3.29913362615e-05
2.00283433557e-07
3.29230944509e-05
1.26235039462e-07
3.28804065559e-05
7.71343779611e-08
3.28546214598e-05
4.5152292634e-08
3.28397943847e-05
2.47699103626e-08
3.28318678898e-05
1.21335084665e-08
3.28279984277e-05
4.5887857985e-09
3.28269997724e-05
6.69048475051e-11
3.28271805384e-05
-1.81038027875e-09
3.28280289316e-05
-2.71303449917e-09
3.28291446749e-05
-2.93323229961e-09
3.28302918869e-05
-2.7740052965e-09
3.28313478214e-05
-2.43553374944e-09
3.28322581749e-05
-2.0365446979e-09
3.28330081e-05
-1.6433849032e-09
3.28336036823e-05
-1.28961801122e-09
3.28340598641e-05
-9.88947830289e-10
3.28343947513e-05
-7.44077954879e-10
3.28346610168e-05
-5.53355066995e-10
3.28348772477e-05
-4.1599925282e-10
3.28350243553e-05
-2.80717203214e-10
3.28351234742e-05
-1.83260339618e-10
3.28351892302e-05
-1.15357801611e-10
3.28352310424e-05
-6.848448798e-11
3.28352557842e-05
-3.52423824982e-11
3.28352674134e-05
-1.00268505593e-11
3.28352694844e-05
8.28962129071e-12
3.28352644879e-05
2.18513447946e-11
3.2835254244e-05
3.2089737676e-11
3.2835239971e-05
4.02305997613e-11
3.28352224123e-05
4.726207191e-11
3.28352020223e-05
5.38329359174e-11
3.28351790855e-05
6.03721769725e-11
3.28351537759e-05
6.71989592103e-11
3.28351261253e-05
7.46678741193e-11
3.2835096169e-05
8.29214964058e-11
3.28350641963e-05
9.17423576832e-11
3.28350307544e-05
1.00891597675e-10
3.28349968022e-05
1.0989452922e-10
3.28349640125e-05
1.17829349402e-10
3.28349352616e-05
1.23005059936e-10
3.28349152226e-05
1.22650019516e-10
3.28349106692e-05
1.13131038342e-10
3.28349326753e-05
8.70017616349e-11
3.28349984051e-05
3.35900243477e-11
3.28351371132e-05
-6.63186245984e-11
3.28353998993e-05
-2.49477586571e-10
3.28358743668e-05
-5.82257861462e-10
3.28365816421e-05
-1.01215893887e-09
3.28376101413e-05
-1.66693269621e-09
3.28392149534e-05
-2.72497189868e-09
3.28417767687e-05
-4.3943278852e-09
3.28457997053e-05
-7.02119062296e-09
3.28520993921e-05
-1.11631299008e-08
3.2861991608e-05
-1.77279158539e-08
3.28776461499e-05
-2.82464287561e-08
3.29027333026e-05
-4.53832336083e-08
3.29426212608e-05
-7.32594022577e-08
3.30071712132e-05
-1.1965318716e-07
3.31134232033e-05
-1.99388355691e-07
3.32904967778e-05
-3.41866990924e-07
3.35867927999e-05
-6.06871305927e-07
3.40737447174e-05
-1.11305820983e-06
3.48180625017e-05
-2.08988686059e-06
3.56841419758e-05
-3.98669329595e-06
-7.13611270883e-06
3.57585994388e-05
5.35105665332e-05
8.90861284557e-06
5.55742224251e-05
1.58808747095e-05
5.52424828214e-05
1.62761347287e-05
5.35977863878e-05
1.40524895261e-05
5.15418482403e-05
1.11572131307e-05
4.95802805818e-05
8.4510110396e-06
4.79243516682e-05
6.22316755251e-06
4.66181399019e-05
4.49686544669e-06
4.56304672103e-05
3.20269022421e-06
4.4905118374e-05
2.25239732493e-06
4.43840912978e-05
1.56491369962e-06
4.40166952599e-05
1.07360968002e-06
4.37619688757e-05
7.26475547483e-07
4.35882703737e-05
4.84003303007e-07
4.34718711131e-05
3.16682748716e-07
4.33953611359e-05
2.02745070785e-07
4.33461909463e-05
1.26304618155e-07
4.33154534181e-05
7.58898695192e-08
4.32969171307e-05
4.33062453472e-08
4.32862911381e-05
2.27595481318e-08
4.32806883705e-05
1.01916009452e-08
4.32778807765e-05
2.87454561917e-09
4.32770530341e-05
-9.82592235764e-10
4.32772709943e-05
-2.93094972287e-09
4.32779586009e-05
-3.62079437866e-09
4.32788217258e-05
-3.6370858261e-09
4.32796945999e-05
-3.30836355493e-09
4.32804921081e-05
-2.83400865508e-09
4.32811779e-05
-2.32913223052e-09
4.3281743759e-05
-1.85543245545e-09
4.3282196519e-05
-1.44166355211e-09
4.32825488834e-05
-1.09639868395e-09
4.32828106052e-05
-8.15034584477e-10
4.32829859679e-05
-5.91320361711e-10
4.32831189894e-05
-4.13696665227e-10
4.3283204402e-05
-2.68629601189e-10
4.3283258409e-05
-1.69319658034e-10
4.32832982453e-05
-1.08274673851e-10
4.32833226905e-05
-5.96416047998e-11
4.32833347356e-05
-2.20267397923e-11
4.3283337793e-05
5.2773360984e-12
4.32833338157e-05
2.58755484943e-11
4.32833245084e-05
4.14477511438e-11
4.32833110176e-05
5.37770748971e-11
4.32832939781e-05
6.4361582218e-11
4.32832738074e-05
7.40648301195e-11
4.32832508197e-05
8.3419970065e-11
4.32832252854e-05
9.27949391446e-11
4.32831975766e-05
1.02444643276e-10
4.32831682199e-05
1.12355376042e-10
4.32831378112e-05
1.2223383402e-10
4.32831072854e-05
1.3149942419e-10
4.32830780792e-05
1.39180787157e-10
4.32830522828e-05
1.43710931466e-10
4.32830328177e-05
1.42569878188e-10
4.3283023899e-05
1.31683565833e-10
4.3283032964e-05
1.04182417806e-10
4.32830718442e-05
4.82542407086e-11
4.32831595345e-05
-5.39733582608e-11
4.32833157029e-05
-2.22385774683e-10
4.32835399015e-05
-4.73497378224e-10
4.32839709329e-05
-1.01318945344e-09
4.32847227983e-05
-1.76388166391e-09
4.32859562564e-05
-2.90024376799e-09
4.32878772324e-05
-4.64579257265e-09
4.32908346651e-05
-7.35160765659e-09
4.32953884226e-05
-1.15747999138e-08
4.33024183318e-05
-1.8192888314e-08
4.33133092274e-05
-2.86186462068e-08
4.33302244467e-05
-4.51614647147e-08
4.33564833612e-05
-7.16419549143e-08
4.3397674037e-05
-1.14449886772e-07
4.34626792728e-05
-1.84658232607e-07
4.3565278426e-05
-3.01987311436e-07
4.37255198534e-05
-5.02108209791e-07
4.39681510779e-05
-8.49502316528e-07
4.43100544324e-05
-1.45496134058e-06
4.47127533586e-05
-2.49258523502e-06
4.4935268262e-05
-4.20920740974e-06
-6.60968355232e-06
4.4408838271e-05
5.27351380635e-05
6.1734748207e-06
5.5730934602e-05
1.28850782366e-05
5.73114745259e-05
1.46955948642e-05
5.76109921278e-05
1.37529719854e-05
5.71335230816e-05
1.16346822357e-05
5.63194687169e-05
9.26506546314e-06
5.54489887361e-05
7.09364759195e-06
5.46629783861e-05
5.28287585384e-06
5.40136830482e-05
3.85198561935e-06
5.35061519501e-05
2.7599284796e-06
5.31242562789e-05
1.94680942649e-06
5.28449869967e-05
1.3528790171e-06
5.26454410273e-05
9.26021571202e-07
5.25057170703e-05
6.2372731318e-07
5.24097225948e-05
4.12677274298e-07
5.23450168806e-05
2.67450833226e-07
5.23022793518e-05
1.69042195207e-07
5.22746924742e-05
1.03476795112e-07
5.22573681955e-05
6.06305708023e-08
5.22468597449e-05
3.32680450268e-08
5.22407602299e-05
1.62911617344e-08
5.22374514708e-05
6.18334981911e-09
5.22359528493e-05
5.16073629197e-10
5.22354448691e-05
-2.42292560882e-09
5.22355097332e-05
-3.68561478546e-09
5.22358550643e-05
-3.9823736618e-09
5.22363091516e-05
-3.76240773152e-09
5.22367753628e-05
-3.30017688557e-09
5.22372026011e-05
-2.75632730773e-09
5.22375681447e-05
-2.22093322627e-09
5.22378652955e-05
-1.73877191406e-09
5.22380968453e-05
-1.3279064063e-09
5.22382730765e-05
-9.91224388429e-10
5.22384058957e-05
-7.24098489897e-10
5.22385061996e-05
-5.13958833878e-10
5.22385907418e-05
-3.53128747808e-10
5.22386562445e-05
-2.34777630589e-10
5.22386985137e-05
-1.50497926894e-10
5.22387312514e-05
-9.2333697144e-11
5.2238746636e-05
-3.73665775074e-11
5.2238751824e-05
1.33634724955e-13
5.22387493821e-05
2.83635733645e-11
5.22387412529e-05
4.96272229057e-11
5.22387287623e-05
6.63216299659e-11
5.22387127686e-05
8.04118546625e-11
5.2238693847e-05
9.30437700428e-11
5.22386725346e-05
1.04791141712e-10
5.22386497506e-05
1.15642658308e-10
5.22386252335e-05
1.27033720758e-10
5.2238598197e-05
1.39469735066e-10
5.22385700444e-05
1.50463334038e-10
5.22385418117e-05
1.59805015172e-10
5.22385149948e-05
1.6607471765e-10
5.22384919397e-05
1.66859929535e-10
5.22384769222e-05
1.57700729408e-10
5.22384811384e-05
1.27587066115e-10
5.22385079608e-05
7.74616905067e-11
5.22385754333e-05
-1.91321474467e-11
5.22386897255e-05
-1.6813445785e-10
5.22388708222e-05
-4.03402473919e-10
5.22392001692e-05
-8.02699144278e-10
5.22397016503e-05
-1.51455828049e-09
5.22404555245e-05
-2.51762692321e-09
5.22415932095e-05
-4.03779834287e-09
5.22433174519e-05
-6.36989191369e-09
5.2245929499e-05
-9.96350689447e-09
5.22498812402e-05
-1.55263932048e-08
5.22558641163e-05
-2.41756110422e-08
5.22649383399e-05
-3.76927034066e-08
5.22787248763e-05
-5.89478210448e-08
5.22996890309e-05
-9.26059210634e-08
5.23315589025e-05
-1.46319564245e-07
5.23797005341e-05
-2.32799659417e-07
5.24510786006e-05
-3.73365159346e-07
5.25526168509e-05
-6.03646217086e-07
5.26849424319e-05
-9.81827643352e-07
5.28259095783e-05
-1.5959283744e-06
5.28940156937e-05
-2.56069117528e-06
5.26764265052e-05
-3.99161741785e-06
-5.80038020115e-06
5.18671228877e-05
5.19834865263e-05
4.18998833376e-06
5.50586641184e-05
9.80990071077e-06
5.76386134292e-05
1.21156456132e-05
5.93259034527e-05
1.20656820234e-05
6.02280155641e-05
1.07325701834e-05
6.05929268245e-05
8.90015426167e-06
6.06482838196e-05
7.03829065564e-06
6.05531894323e-05
5.37797029872e-06
6.04029549269e-05
4.00222018255e-06
6.02479144886e-05
2.91496897512e-06
6.01107890263e-05
2.0839349445e-06
5.99990295696e-05
1.46463852811e-06
5.99125144589e-05
1.01253673503e-06
5.98479226274e-05
6.88319197425e-07
5.9801019116e-05
4.59580839696e-07
5.9767734512e-05
3.00735487966e-07
5.97445931948e-05
1.9218356061e-07
5.97288146819e-05
1.19255356897e-07
5.97182665599e-05
7.11787404149e-08
5.97113603919e-05
4.01742597662e-08
5.97069410653e-05
2.07105344149e-08
5.97042071886e-05
8.91727173417e-09
5.9702598174e-05
2.12513316746e-09
5.97016936511e-05
-1.51835821318e-09
5.97012353605e-05
-3.22728004796e-09
5.97010458384e-05
-3.79280824629e-09
5.97010095518e-05
-3.72607852678e-09
5.97010538428e-05
-3.34442517333e-09
5.97011349905e-05
-2.83743168521e-09
5.97012273245e-05
-2.31322431847e-09
5.97013169661e-05
-1.82837110288e-09
5.97013973005e-05
-1.40819938947e-09
5.97014669014e-05
-1.06078512883e-09
5.97015263711e-05
-7.83527661638e-10
5.97015765171e-05
-5.64063580141e-10
5.97016162348e-05
-3.92803385229e-10
5.97016439518e-05
-2.62449869323e-10
5.97016591908e-05
-1.65691373123e-10
5.9701657473e-05
-9.05708684237e-11
5.97016493562e-05
-2.92059899035e-11
5.97016426718e-05
6.86132087567e-12
5.97016332698e-05
3.78098751496e-11
5.97016227736e-05
6.01713117997e-11
5.97016110063e-05
7.81403971406e-11
5.97015969023e-05
9.45692527259e-11
5.97015802742e-05
1.09726558757e-10
5.97015611002e-05
1.24023665147e-10
5.97015391122e-05
1.37696965317e-10
5.97015154606e-05
1.50759194964e-10
5.97014921049e-05
1.62900887036e-10
5.97014692142e-05
1.73424166398e-10
5.97014480396e-05
1.81047644761e-10
5.97014303096e-05
1.83884405769e-10
5.97014178975e-05
1.79373799396e-10
5.97014112934e-05
1.64417827489e-10
5.97014025357e-05
1.36455617664e-10
5.97014014278e-05
7.86714230398e-11
5.97014116003e-05
-2.92567022027e-11
5.97014757886e-05
-2.32241450381e-10
5.97016519065e-05
-5.79388754473e-10
5.97019405873e-05
-1.09123377131e-09
5.97023129664e-05
-1.88679741189e-09
5.97028719016e-05
-3.07643733107e-09
5.97037003762e-05
-4.8661384868e-09
5.9704911442e-05
-7.58081105368e-09
5.97066691344e-05
-1.17210482897e-08
5.97092106466e-05
-1.80677537596e-08
5.97128786659e-05
-2.78434722285e-08
5.97181616919e-05
-4.29755614753e-08
5.97257400731e-05
-6.65260288715e-08
5.97365167934e-05
-1.03382464457e-07
5.97515547915e-05
-1.61357376629e-07
5.97716948205e-05
-2.52939486928e-07
5.97963511505e-05
-3.98021265672e-07
5.98203713786e-05
-6.27666190371e-07
5.98268684253e-05
-9.88324447269e-07
5.97737324241e-05
-1.54279216448e-06
5.95728180845e-05
-2.35977685895e-06
5.90657312661e-05
-3.48453002236e-06
-4.82567401677e-06
5.80910249964e-05
5.1437305426e-05
2.75268294709e-06
5.42658207125e-05
6.98138549068e-06
5.72496434381e-05
9.13182294769e-06
5.97900278448e-05
9.52529767827e-06
6.17201283816e-05
8.8024697057e-06
6.30883033707e-05
7.53197933156e-06
6.40167169726e-05
6.10987711265e-06
6.46292368139e-05
4.76545051562e-06
6.50258038183e-05
3.6056532366e-06
6.52790784428e-05
2.661694409e-06
6.54389735431e-05
1.92403990193e-06
6.55386904289e-05
1.36492169931e-06
6.55999290276e-05
9.51298191782e-07
6.56367439104e-05
6.51504367482e-07
6.56581950861e-05
4.38129717297e-07
6.56701033917e-05
2.88827234824e-07
6.56761927189e-05
1.86094282925e-07
6.56788291233e-05
1.16619001854e-07
6.56794996663e-05
7.050824571e-08
6.56791235713e-05
4.05504017232e-08
6.56782562905e-05
2.1577861554e-08
6.567722549e-05
9.94811819011e-09
6.56762163542e-05
3.13431446916e-09
6.56753071756e-05
-6.09134735611e-10
6.5674538587e-05
-2.45864739667e-09
6.56739103298e-05
-3.16450761688e-09
6.5673411528e-05
-3.22723423779e-09
6.56730247167e-05
-2.95757158895e-09
6.56727309076e-05
-2.54358017061e-09
6.56725119349e-05
-2.09420968486e-09
6.56723516844e-05
-1.66808019123e-09
6.56722364852e-05
-1.29295963968e-09
6.56721542028e-05
-9.78462948818e-10
6.56720942191e-05
-7.23503813746e-10
6.56720507576e-05
-5.20560810463e-10
6.56720195842e-05
-3.61586967538e-10
6.56719945698e-05
-2.3739070322e-10
6.56719730257e-05
-1.44102020046e-10
6.56719580757e-05
-7.55765715488e-11
6.56719563531e-05
-2.74409700805e-11
6.56719548053e-05
8.45085852527e-12
6.56719473757e-05
4.52828312822e-11
6.56719371139e-05
7.04789017621e-11
6.5671924399e-05
9.09035947446e-11
6.56719100741e-05
1.08944158615e-10
6.56718941366e-05
1.25717359126e-10
6.56718764191e-05
1.418013914e-10
6.5671856843e-05
1.57342433778e-10
6.56718361616e-05
1.71515100796e-10
6.56718160817e-05
1.83052989248e-10
6.56717954388e-05
1.94135465151e-10
6.56717748249e-05
2.01734243166e-10
6.56717553196e-05
2.03475394642e-10
6.56717386516e-05
1.9613550933e-10
6.56717280744e-05
1.75088736839e-10
6.56717305659e-05
1.34056618513e-10
6.56717397759e-05
6.95815273275e-11
6.56717563618e-05
-4.57502270091e-11
6.56718224222e-05
-2.98227584909e-10
6.56719109154e-05
-6.67795777468e-10
6.56720495694e-05
-1.22978339521e-09
6.56722444509e-05
-2.08153690139e-09
6.56725110473e-05
-3.34290645544e-09
6.56728652408e-05
-5.22018914653e-09
6.56733168078e-05
-8.03222548017e-09
6.56738618423e-05
-1.22659302568e-08
6.56744687878e-05
-1.86745480009e-08
6.56750489789e-05
-2.84235055414e-08
6.56753973873e-05
-4.33238010174e-08
6.56750818806e-05
-6.6210348159e-08
6.56732294512e-05
-1.01529860446e-07
6.56680928574e-05
-1.56220607116e-07
6.56561205332e-05
-2.40966990114e-07
6.56301572056e-05
-3.72057751437e-07
6.55760036761e-05
-5.73512409981e-07
6.54663348163e-05
-8.78655360455e-07
6.52518027187e-05
-1.32825976614e-06
6.48520094045e-05
-1.95998357439e-06
6.4153834735e-05
-2.78635495197e-06
-3.73780652641e-06
6.30659672926e-05
5.10850424156e-05
1.6676405698e-06
5.36118446967e-05
4.45458327562e-06
5.66873166827e-05
6.05635102138e-06
5.96894467547e-05
6.52316766729e-06
6.229972742e-05
6.19218909904e-06
6.44136890399e-05
5.41801777013e-06
6.60471852441e-05
4.47638096687e-06
6.72686168602e-05
3.54401895693e-06
6.81598959805e-05
2.71437417351e-06
6.87977626818e-05
2.0238277642e-06
6.92467471838e-05
1.4750554557e-06
6.95579661678e-05
1.05370277052e-06
6.97704330199e-05
7.38831393607e-07
6.99131762905e-05
5.08761148907e-07
7.00073876469e-05
3.4391841196e-07
7.00682975022e-05
2.27917430644e-07
7.01066998594e-05
1.47691974725e-07
7.01301425156e-05
9.31763935744e-08
7.01438320051e-05
5.68188029781e-08
7.01513084736e-05
3.307397902e-08
7.01549413145e-05
1.7945065878e-08
7.01562894508e-05
8.60002676675e-09
7.01563616896e-05
3.06212000808e-09
7.0155769958e-05
-1.7359645884e-11
7.01549094066e-05
-1.59805369583e-09
7.01539860978e-05
-2.24115718575e-09
7.01531177469e-05
-2.35884240567e-09
7.01523580124e-05
-2.19779587603e-09
7.01517241001e-05
-1.9096267024e-09
7.01512131545e-05
-1.58322290807e-09
7.01508122439e-05
-1.26713067659e-09
7.01505044167e-05
-9.85094402577e-10
7.01502720364e-05
-7.46044273762e-10
7.01500989368e-05
-5.50364714874e-10
7.01499721218e-05
-3.93704781116e-10
7.01498809397e-05
-2.70361820465e-10
7.01498182903e-05
-1.74696558522e-10
7.01497767277e-05
-1.02494428284e-10
7.01497481549e-05
-4.69601078881e-11
7.01497180844e-05
2.671023785e-12
7.01496946577e-05
3.19183618323e-11
7.01496816149e-05
5.83674486612e-11
7.01496710136e-05
8.11239288284e-11
7.01496609674e-05
1.00994850565e-10
7.01496507249e-05
1.19233614175e-10
7.01496399046e-05
1.36590129663e-10
7.01496283672e-05
1.53401373891e-10
7.0149616137e-05
1.69645175482e-10
7.01496027503e-05
1.84977085557e-10
7.01495870682e-05
1.98807212322e-10
7.01495710312e-05
2.10247042217e-10
7.01495553303e-05
2.17523552366e-10
7.01495407078e-05
2.18197961109e-10
7.01495278227e-05
2.09107280771e-10
7.01495165691e-05
1.86404321206e-10
7.014950502e-05
1.45654546997e-10
7.01494887584e-05
8.59557550216e-11
7.01494843214e-05
-4.11752835047e-11
7.01494824866e-05
-2.96254389498e-10
7.01494961092e-05
-6.81310667093e-10
7.01495093719e-05
-1.24296220275e-09
7.01494988824e-05
-2.07093030813e-09
7.01494366722e-05
-3.2805602967e-09
7.01492684881e-05
-5.05185195367e-09
7.01488938176e-05
-7.65739867278e-09
7.01481352504e-05
-1.15072126587e-08
7.01466896138e-05
-1.72287636278e-08
7.01440400802e-05
-2.57738177208e-08
7.01393049135e-05
-3.85884665912e-08
7.01309939569e-05
-5.78992102904e-08
7.01166109307e-05
-8.71466420154e-08
7.00919714119e-05
-1.31580889426e-07
7.00499483556e-05
-1.98943744332e-07
6.99785113625e-05
-3.00620576849e-07
6.98576001233e-05
-4.52600957454e-07
6.96546107532e-05
-6.75665791508e-07
6.93193612259e-05
-9.93009917761e-07
6.87818548155e-05
-1.42247711007e-06
6.79587890409e-05
-1.96328887917e-06
-2.57003490396e-06
6.67910175535e-05
5.08804132494e-05
7.87227358273e-07
5.31704663232e-05
2.16453026778e-06
5.62177499473e-05
3.00906745666e-06
5.94382700105e-05
3.30264766489e-06
6.24449698768e-05
3.18548929108e-06
6.50382533393e-05
2.82473436615e-06
6.715486695e-05
2.35976741474e-06
6.88135654825e-05
1.88532048204e-06
7.00731715205e-05
1.45476819228e-06
7.10056685203e-05
1.09133081995e-06
7.16812648511e-05
7.99459179577e-07
7.21614242512e-05
5.73543424661e-07
7.24966052282e-05
4.03650469483e-07
7.27264818389e-05
2.78884590062e-07
7.28812808027e-05
1.8911949872e-07
7.29834706325e-05
1.25727650768e-07
7.30494145002e-05
8.17481556323e-08
7.30908167031e-05
5.17742378302e-08
7.31159107505e-05
3.17248016101e-08
7.31303953752e-05
1.85893995269e-08
7.31381502014e-05
1.0190284421e-08
7.31417707438e-05
4.97952863154e-09
7.31429585436e-05
1.87436375069e-09
7.31428122764e-05
1.28950050608e-10
7.31419891285e-05
-7.74864203465e-10
7.31409063036e-05
-1.15829097572e-09
7.31397915055e-05
-1.24400390791e-09
7.31387641388e-05
-1.17038854623e-09
7.31378766593e-05
-1.02210653842e-09
7.31371429783e-05
-8.49501566714e-10
7.313655571e-05
-6.7982327051e-10
7.31360974672e-05
-5.26813712665e-10
7.31357473827e-05
-3.95921448828e-10
7.3135484828e-05
-2.87770110425e-10
7.31352914608e-05
-2.0029570812e-10
7.31351516519e-05
-1.30509395558e-10
7.31350521466e-05
-7.51464964643e-11
7.31349803865e-05
-3.06898081537e-11
7.31349271873e-05
6.2820952874e-12
7.31348973156e-05
3.25837275091e-11
7.3134874026e-05
5.5249150577e-11
7.31348570661e-05
7.5369696315e-11
7.31348445298e-05
9.37034698025e-11
7.31348346115e-05
1.10956799118e-10
7.31348260407e-05
1.27850204757e-10
7.31348179311e-05
1.44753030688e-10
7.31348096598e-05
1.61737666617e-10
7.31348007838e-05
1.78595740773e-10
7.31347910344e-05
1.94802453824e-10
7.31347803478e-05
2.09567574404e-10
7.31347687625e-05
2.21912023418e-10
7.31347563222e-05
2.30060293904e-10
7.3134743088e-05
2.315398907e-10
7.31347291602e-05
2.23143333223e-10
7.31347147922e-05
2.00836506476e-10
7.31347004723e-05
1.60030873719e-10
7.31346876624e-05
9.88418570816e-11
7.31346604504e-05
-1.38214161082e-11
7.3134615301e-05
-2.50948251046e-10
7.31345435099e-05
-6.09390301556e-10
7.31344221129e-05
-1.12144799823e-09
7.31342075589e-05
-1.85625195101e-09
7.31338307942e-05
-2.90364634137e-09
7.31331757365e-05
-4.39663527025e-09
7.313204745e-05
-6.52895711054e-09
7.31301210709e-05
-9.58068527083e-09
7.31268691952e-05
-1.39767404583e-08
7.31214287506e-05
-2.03332190284e-08
7.31123762248e-05
-2.95357765227e-08
7.30973956175e-05
-4.29184244834e-08
7.30727701936e-05
-6.25210240453e-08
7.30325580882e-05
-9.13685838821e-08
7.2967191324e-05
-1.33576788724e-07
7.28615696783e-05
-1.94998737021e-07
7.26923916202e-05
-2.83422713609e-07
7.24249382969e-05
-4.08212273195e-07
7.20105006596e-05
-5.78571980188e-07
7.13873419757e-05
-7.99318271839e-07
7.0489110212e-05
-1.06505685282e-06
-1.35099713735e-06
6.9270072629e-05
5.07871726576e-05
5.47389084783e-11
5.29516500026e-05
5.29890965915e-11
5.59606886853e-05
2.88335905805e-11
5.92633221975e-05
1.42136342057e-11
6.24488087816e-05
2.76569634669e-12
6.52735493185e-05
-6.11153929823e-12
6.76333288177e-05
-1.20251438371e-11
6.95186643409e-05
-1.4982294334e-11
7.0973448014e-05
-1.54229167874e-11
7.2064792833e-05
-1.39428617906e-11
7.28642632415e-05
-1.11737579414e-11
7.34378144912e-05
-7.77043475841e-12
7.38414694071e-05
-4.39313665271e-12
7.41203557369e-05
-1.68766296365e-12
7.43094755305e-05
-2.43652144785e-13
7.44352036912e-05
-4.59880866904e-13
7.45169544899e-05
-2.5941452274e-12
7.45687351754e-05
-6.39991338679e-12
7.46004712625e-05
-1.12389211363e-11
7.46190768379e-05
-1.61301659506e-11
7.46292871129e-05
-1.99455127395e-11
7.46342882768e-05
-2.1590707512e-11
7.46361832853e-05
-2.06009827756e-11
7.46363305321e-05
-1.82540857833e-11
7.46355714328e-05
-1.57230556871e-11
7.46344257559e-05
-1.25723724526e-11
7.46331907643e-05
-8.97120967339e-12
7.46320254033e-05
-4.98713061258e-12
7.46310034768e-05
-1.39299788662e-13
7.46301500763e-05
3.93921273689e-12
7.46294616748e-05
8.61797643058e-12
7.46289212845e-05
1.36155462817e-11
7.46285065072e-05
1.88953151147e-11
7.46281942548e-05
2.45231761549e-11
7.46279633183e-05
3.06834497756e-11
7.46277953519e-05
3.75007230742e-11
7.46276751921e-05
4.50573929728e-11
7.46275912097e-05
5.33361318933e-11
7.46275351794e-05
6.2354471409e-11
7.46274960204e-05
7.17837650928e-11
7.46274697316e-05
8.15789345952e-11
7.46274524719e-05
9.26719032773e-11
7.46274412489e-05
1.04969295208e-10
7.46274338329e-05
1.18416303044e-10
7.4627428688e-05
1.33040929012e-10
7.46274247465e-05
1.48749114154e-10
7.46274212552e-05
1.65295631322e-10
7.4627417665e-05
1.82261651591e-10
7.46274135358e-05
1.99009947487e-10
7.46274085131e-05
2.14668564472e-10
7.46274024069e-05
2.28098787932e-10
7.46273949807e-05
2.37573093581e-10
7.46273858597e-05
2.40766216884e-10
7.4627374381e-05
2.34738056475e-10
7.46273594185e-05
2.15912711836e-10
7.46273392079e-05
1.80345239593e-10
7.46273131113e-05
1.25037669217e-10
7.46272695605e-05
2.98590646859e-11
7.46271777107e-05
-1.58952025937e-10
7.4627040154e-05
-4.71711298734e-10
7.46268142038e-05
-8.95380982808e-10
7.46264393021e-05
-1.48121923906e-09
7.46258183901e-05
-2.28258550436e-09
7.46247936946e-05
-3.37178716925e-09
7.46231078873e-05
-4.84300130152e-09
7.46203407434e-05
-6.81339367892e-09
7.46158292496e-05
-9.46509335203e-09
7.46085042833e-05
-1.30080923288e-08
7.45966149846e-05
-1.76463143785e-08
7.45773482879e-05
-2.36515588147e-08
7.45462961893e-05
-3.14687430185e-08
7.44966570627e-05
-4.17292706103e-08
7.44176386395e-05
-5.45581840801e-08
7.42927536866e-05
-7.01135796106e-08
7.40974758633e-05
-8.81447239366e-08
7.3796752222e-05
-1.07488416222e-07
7.33435523479e-05
-1.25371829346e-07
7.26808448392e-05
-1.36610537133e-07
7.17497927986e-05
-1.34004550369e-07
-1.09021526185e-07
7.0507817385e-05
5.07871716225e-05
-7.8711684497e-07
5.29516491479e-05