/*--------------------------------*- C++ -*----------------------------------*\
| =========                 |                                                 |
| \\      /  F ield         | OpenFOAM: The Open Source CFD Toolbox           |
|  \\    /   O peration     | Version:  2106                                  |
|   \\  /    A nd           | Website:  www.openfoam.com                      |
|    \\/     M anipulation  |                                                 |
\*---------------------------------------------------------------------------*/
FoamFile
{
    version     2.0;
    format      ascii;
    arch        "LSB;label=32;scalar=64";
    class       volScalarField;
    location    "0.095";
    object      p;
}
// * * * * * * * * * * * * * * * * * * * * * * * * * * * * * * * * * * * * * //

dimensions      [0 2 -2 0 0 0 0];

internalField   nonuniform List<scalar> 
11200
(
142.443691673
139.515089314
138.401236808
137.87390308
137.506570285
137.211788485
136.950141175
136.701599348
136.457077917
136.212007349
135.963690542
135.710372769
135.450821895
135.184102121
134.909446275
134.626180533
134.333678514
134.031333478
133.718546702
133.394734167
133.05926531
132.711492482
132.350759174
131.976395409
131.587716101
131.184020517
130.764592836
130.328703056
129.875607707
129.404550404
128.914762364
128.405462916
127.875859885
127.325149614
126.752517366
126.157138241
125.538178139
124.894793617
124.226132107
123.531332428
122.809525049
122.059832266
121.281368335
120.473239544
119.634544173
118.764372295
117.861805364
116.925915506
115.955764442
114.950401914
113.908863539
112.830167936
111.71331298
110.55727097
109.360982464
108.123348444
106.843220402
105.519387827
104.150562446
102.735358346
101.272266959
99.7596254795
98.1955765848
96.5780192918
94.9045437273
93.1723449063
91.3781125104
89.5178865809
87.586863245
85.5791283606
83.4872945307
81.3020070748
79.0110660056
76.5982963908
74.0416337752
71.3094635357
68.3542656556
65.1036725962
61.4049566592
56.6444406325
140.650650073
139.292475341
138.501502188
138.001485336
137.610493932
137.286607794
137.002082812
136.737476661
136.48198498
136.229459456
135.976072807
135.71931141
135.45743812
135.189176319
134.913525383
134.629650306
134.336813584
134.034332451
133.721548139
133.397796543
133.062431954
132.714760407
132.354162787
131.979961863
131.591460865
131.187953219
130.768720088
130.333029529
129.880136739
129.409284365
128.919702766
128.410610132
127.88121243
127.330705432
126.758278153
126.163107344
125.544358819
124.90118896
124.232745151
123.538166264
122.816582905
122.067117583
121.28888486
120.480991448
119.642536195
118.772609917
117.870295024
116.934664858
115.964782667
114.959700106
113.918455178
112.840069472
111.723544545
110.567857269
109.371953871
108.134742372
106.855083018
105.531776175
104.163547101
102.749026773
101.286728016
99.7750155269
98.212065884
96.5958165773
94.9239002554
93.1935742088
91.4016233702
89.5442106113
87.6166967208
85.6133972231
83.5272432347
81.3492772296
79.067955898
76.6681445593
74.1294519165
71.4233778505
68.5091279585
65.3288337675
61.7796272979
57.6658980794
139.655460016
139.001258961
138.448901529
138.011281207
137.639654166
137.317548703
137.028444794
136.75820671
136.497739563
136.241254565
135.98486676
135.72589442
135.46242542
135.193032661
134.916594897
134.6321833
134.338987974
134.036269989
133.723330637
133.3994924
133.064092235
132.716491649
132.355953449
131.981815652
131.593386316
131.189956513
130.770805404
130.335200108
129.882395503
129.411634359
128.922147641
128.413155011
127.883865504
127.333475935
126.761167516
126.166113444
125.547482104
124.904430838
124.236108047
123.541653622
122.820199143
122.070868123
121.292776227
120.485031462
119.646734228
118.776977236
117.874845218
116.93941438
115.969751494
114.964912531
113.923940768
112.84586425
111.729692442
110.574411908
109.378980748
108.142321516
106.863312222
105.540774987
104.173461936
102.760037206
101.299054018
99.7889257309
98.2278888708
96.613971095
94.9449364014
93.218193411
91.4306997423
89.578856362
87.6583488053
85.6639381096
83.5891740443
81.4259927514
79.1642980141
76.7911686922
74.2898750963
71.6385386926
68.8091434298
65.7699867427
62.4849785845
58.9308370308
139.105699008
138.742317024
138.342417234
137.973424063
137.635803784
137.327697058
137.042328917
136.771619837
136.509242561
136.250570198
135.992184748
135.731554656
135.46678003
135.196393498
134.91921885
134.634273403
134.340700645
134.03772419
133.724616755
133.400677956
133.065217099
132.717554603
132.357029414
131.982919904
131.59452528
131.191136321
130.772030619
130.336473679
129.883719111
129.413008638
128.923572185
128.414627991
127.88538297
127.335034067
126.762769981
126.167769354
125.549197934
124.906215201
124.23796775
123.543595451
122.822230488
122.072997341
121.295012986
120.487387259
119.649222931
118.779615665
117.877653824
116.942417991
115.972980225
114.968402945
113.92773731
112.850020971
111.734275115
110.579500625
109.384673141
108.148736804
106.870596444
105.549107655
104.183063811
102.7711799
101.312073273
99.8042459786
98.2460392113
96.6355951215
94.9708101469
93.2492846816
91.4682432437
89.6244337367
87.714002917
85.7323405204
83.6738888138
81.5319163088
79.298187834
76.9626547418
74.5132157849
71.9357506992
69.2154754531
66.3426244988
63.3207359842
60.1868842648
138.771651287
138.539855166
138.238440949
137.927461035
137.622617738
137.330589787
137.051609081
136.782477508
136.519511577
136.259421234
135.999446106
135.737348774
135.471336677
135.199960667
134.922023955
134.636509463
134.342524431
134.039259531
133.725959343
133.401901007
133.066379384
132.718699204
132.358154287
131.984050589
131.595681796
131.19233159
130.773273912
130.337772158
129.885078649
129.414434428
128.925069411
128.416202481
127.887041667
127.336784172
126.764616229
126.169713833
125.551242667
124.908358548
124.240212775
123.545946238
122.824693948
122.075583045
121.297733005
120.490256452
119.652259315
118.782841004
117.881094391
116.946105587
115.976953756
114.972709757
113.932435019
112.855179756
111.739980526
110.585857002
109.391807807
108.1568051
106.879787407
105.559649796
104.19523507
102.785319804
101.328604371
99.8236782316
98.2690018019
96.6628815871
95.0034243202
93.2884883133
91.5156259408
89.6820150205
87.7843757247
85.8188733967
83.7810105718
81.6655210117
79.466293433
77.1764037314
74.7884219541
72.295324645
69.6928958294
66.9855591944
64.1946736079
61.3709517017
138.568259062
138.392356387
138.151159824
137.883831218
137.606640487
137.329997637
137.058302752
136.791795447
136.529024286
136.268009279
136.006715563
135.743276093
135.476065378
135.203692534
134.924964597
134.638843782
134.344407948
134.040817582
133.727289809
133.40307858
133.067460052
132.719722295
132.359154672
131.985050534
131.596696666
131.193372603
130.774349268
130.338887849
129.886239138
129.415643161
128.926328903
128.417514362
127.888406728
127.338202696
126.766088673
126.171241557
125.552829648
124.910013058
124.241943802
123.547767188
122.826617783
122.077623632
121.299905129
120.492577737
119.65475124
118.78552979
117.884012079
116.949291312
115.980454599
114.976582916
113.936749987
112.860020897
111.745450267
110.592079778
109.398934895
108.165020728
106.889317197
105.570774357
104.20829962
102.800751489
101.346909355
99.8454783409
98.2950754397
96.6941857508
95.0411420696
93.3340944994
91.5709721947
89.7494415229
87.8668626598
85.9202499249
83.9062473661
81.8211429019
79.660969882
77.4217859457
75.1003045114
72.6951730993
70.2094633574
67.6553488691
65.0598245555
62.4700767244
138.445142578
138.289534369
138.083230807
137.846665995
137.591187301
137.327903676
137.063285824
136.799772226
136.537633766
136.276042693
136.013665022
135.749024254
135.480690594
135.207355451
134.927846596
134.64111638
134.346219787
134.042290876
133.728521488
133.404143504
133.068414836
132.720609056
132.360006858
131.985891223
131.597542156
131.194234706
130.775236613
130.339806812
129.887194552
129.416638867
128.927368273
128.418600713
127.889543665
127.339394404
126.767340659
126.172560902
125.55422428
124.911491437
124.243514603
123.549436431
122.828392821
122.079515991
121.30193222
120.494760605
119.657115034
118.7881048
117.886834915
116.952406329
115.983915933
114.980456068
113.941114535
112.864973752
111.751109501
110.598589289
109.406470101
108.173795336
106.899590452
105.582857268
104.222573729
102.817675647
101.367062471
99.8695760707
98.3239875576
96.7289845732
95.0831554102
93.384970952
91.6327669869
89.8247298798
87.9588904293
86.0331350033
84.0452509263
81.9930332374
79.8745059922
77.688341206
75.4346151357
73.1160991438
70.7403681118
68.3230694496
65.8911570911
63.4841066178
138.371063234
138.221052575
138.03429528
137.818187343
137.57847798
137.325652855
137.067011444
136.806268675
136.544897234
136.282970807
136.019748571
135.754107099
135.484805846
135.210623523
134.930416554
134.643135026
134.347817361
134.043576125
133.729581641
133.405046562
133.069212714
132.721340653
132.360701155
131.986568857
131.598218777
131.194921595
130.775941997
130.34053685
129.887954033
129.417431734
128.928198048
128.41947083
127.890457746
127.340356468
126.76835501
126.173632077
125.55535745
124.912692129
124.244789318
123.550796503
122.829855329
122.081097352
121.303650337
120.496637462
119.659177619
118.790386037
117.889374844
116.955253532
115.987129374
114.984107895
113.945292471
112.869784249
111.756681807
110.605080392
109.414070792
108.18273783
106.910158512
105.595399353
104.237510983
102.835529869
101.388461486
99.8952860242
98.3549494822
96.7663554769
95.1283598965
93.4397675761
91.6993333145
89.9057716037
88.0577821253
86.1541016454
84.1936012125
82.175452675
80.0994180128
77.9663199862
75.7787880445
73.5423820433
71.2671815061
68.96986049
66.6751952789
64.4153205765
138.328787215
138.179339032
138.002921859
137.799181253
137.569645511
137.323933537
137.069569571
136.810926961
136.550215813
136.288117188
136.024315219
135.75795203
135.487936054
135.213118583
134.932382804
134.644680459
134.349039428
134.044557074
133.730387928
133.405730263
133.06981372
132.721888904
132.36121886
131.987072495
131.598720357
131.195430003
130.776463823
130.341077133
129.888516814
129.418020468
128.928815934
128.420121037
127.891143641
127.341081812
126.769124119
126.174450046
125.556230483
124.913628352
124.245799429
123.551891872
122.831046881
122.08240132
121.30508683
120.498230724
119.660956959
118.79238699
117.891640564
116.957836464
115.990093201
114.987529649
113.949265634
112.874422442
111.762123159
110.611492853
109.421658579
108.191749149
106.920894626
105.608225517
104.252873095
102.853967462
101.410638815
99.9220132538
98.387215229
96.8053683292
95.1755997533
93.4970495063
91.7688873854
89.9903424899
88.1607535551
86.2796493773
84.3468794995
82.3628146808
80.3286620677
78.2469270445
76.122078026
73.961446
71.776336052
69.5832415137
67.404312777
65.2658574488
138.309511125
138.159632772
137.98766823
137.789730376
137.565165975
137.323043309
137.070904206
136.813391094
136.553059661
136.290894115
136.026799216
135.760059207
135.489664445
135.214507387
134.93348728
134.645557874
134.349742024
134.04512925
133.730865735
133.406142057
133.070181302
132.722228733
132.361543289
131.987390786
131.599039302
131.195754796
130.776798483
130.341424918
129.888880543
129.418402775
128.929219513
128.420548728
127.891598645
127.341567871
126.769645723
126.175012664
125.556840799
124.914294363
124.246530161
123.55269844
122.831943901
122.083405843
121.306219302
120.499515994
119.66242526
118.794075069
117.893593043
116.960107513
115.992748584
114.990649235
113.952946424
112.878782209
111.767304893
110.617670163
109.429042273
108.200595302
106.931514577
105.620998177
104.268257756
102.872523221
101.433046664
99.949099211
98.4199849636
96.8450467894
95.2236792648
93.5553485457
91.8396221756
90.0762136042
88.265049753
86.4063671754
84.5008650009
82.5499156958
80.5558810455
78.5225276651
76.4555865655
74.3634432148
72.2578822918
70.1547460832
68.0738355317
66.0372064273
138.309514051
138.159649161
137.987695513
137.789766812
137.565210781
137.323095641
137.07096315
136.813455837
136.553129525
136.290968546
136.026877772
135.760141549
135.48975032
135.214596616
134.933579784
134.645653598
134.349840975
134.045231485
133.730971357
133.406251219
133.070294218
132.722345686
132.361664675
131.987517115
131.599171185
131.195892981
130.776943894
130.341578687
129.889044052
129.418577679
128.929407702
128.420752643
127.891821251
127.341812774
126.769917312
126.175316258
125.557182816
124.914682591
124.246974252
123.553210203
122.83253738
122.084098096
121.307031081
120.500472522
119.663557189
118.795419634
117.895195465
116.962022688
115.995043142
114.99340404
113.956259616
112.88277291
111.772117694
110.623480563
109.436063261
108.209085296
106.941786982
105.633433044
104.28331617
102.890764755
101.45515007
99.9758898641
98.4524613199
96.8844183776
95.2714099677
93.6132073417
91.9097444068
90.1611735491
88.3679422717
86.5309166516
84.6516024245
82.7321283154
80.7757023932
78.7869796472
76.7724975394
74.741196003
72.7049211207
70.6787777115
68.6807790217
66.7301423345
138.328796034
138.179388561
138.003004299
137.799291295
137.569780774
137.324091301
137.06974705
136.811121732
136.550425853
136.288340844
136.024551175
135.758199277
135.488193847
135.213386411
134.932660369
134.644967635
134.349336249
134.044863716
133.730704701
133.406057623
133.070152309
132.722239549
132.361582743
131.987451105
131.5991155
131.195843902
130.776899202
130.341537316
129.889005837
129.418543216
128.929378302
128.420730216
127.891808384
127.3418128
126.769934416
126.175355623
125.557250803
124.914786961
124.247124415
123.553417561
122.832815768
122.08446436
121.307505706
120.501080409
119.664328601
118.796391336
117.896412099
116.963538438
115.996923759
114.995729299
113.959126309
112.886298472
111.776444582
110.628781556
109.442547861
108.217007478
106.951454582
105.645219181
104.297673397
102.908237908
101.476397488
100.001709708
98.4838209458
96.9224820584
95.3175841086
93.6691927813
91.9775948037
90.2433327719
88.4673186733
86.6509235893
84.7960565288
82.9055836563
80.9834041188
79.0347741511
77.0667116722
75.0884068686
73.1115880821
71.1507421075
69.2226947567
67.3450173875
138.371078093
138.221136327
138.034434495
137.818372807
137.57870552
137.325917771
137.067309001
136.806594801
136.545248553
136.283344569
136.020142601
135.754519729
135.485235855
135.211070079
134.93087917
134.64361351
134.348311785
134.044086795
133.73010908
133.405591545
133.069776331
132.721924238
132.361306599
131.987198484
131.598875601
131.195609301
130.776665065
130.341300735
129.888765359
129.418298524
128.929130016
128.420479757
127.891557951
127.341565398
126.769693924
126.17512691
125.557039898
124.914601254
124.246972909
123.5533112
122.832767846
122.084491046
121.307626677
120.501319615
119.664715169
118.796960658
117.897207146
116.964611361
115.998337829
114.997561271
113.961469286
112.889265369
111.780172312
110.633436071
109.448330237
108.224161258
106.96027462
105.656062298
104.310971752
102.924516376
101.496286124
100.025968817
98.5133643697
96.9584133303
95.3612190929
93.722087526
92.0415772813
90.3205910023
88.5604277603
86.7628976723
84.9304508945
83.066359441
81.1749305446
79.26177852
77.3341398361
75.4012123183
73.4744795049
71.5679575573
69.6978799218
67.8812950371
138.445163786
138.289654429
138.083429817
137.846930239
137.591510498
137.32827893
137.06370633
136.800232214
136.538128498
136.27656834
136.014218571
135.749603409
135.48129368
135.207981333
134.92849461
134.641786271
134.346911653
134.04300513
133.729258834
133.404905
133.069202015
132.721423758
132.36085182
131.986769226
131.598457494
131.195192464
130.776242926
130.340869135
129.888321937
129.417842287
128.928661047
128.41999905
127.891067328
127.341067497
126.769192237
126.174625869
125.556545005
124.914119292
124.24651222
123.552882013
122.832382627
122.084164948
121.307378114
120.501170972
119.664693677
118.797099425
117.897546393
116.965199905
115.999234902
114.998838723
113.963214255
112.891583503
111.783191658
110.637311754
109.453250069
108.23035247
106.968011932
105.665677531
104.322865141
102.939170319
101.514283667
100.048008725
98.5402838408
96.9912105193
95.4010880424
93.7704549487
92.1001383998
90.3913176424
88.6456049258
86.8651463641
85.052741613
83.2119926931
81.3474799369
79.4649812954
77.5717332183
75.6767322267
73.7910830729
71.9284046144
70.1047917861
68.3377809055
138.568287206
138.392516378
138.151423752
137.884179964
137.607065176
137.330488869
137.058851507
136.792394217
136.529666988
136.268691043
136.007432585
135.744025493
135.476845067
135.204501105
134.925801229
134.639708147
134.345300121
134.041737963
133.72823906
133.404057684
133.068470459
132.720765818
132.36023637
131.986174967
131.597868302
131.194597409
130.775634687
130.340242979
129.887675035
129.417173245
128.927969587
128.419285808
127.890333766
127.340315877
126.768425663
126.17384834
125.555761454
124.913335696
124.245735848
123.552121825
122.831649714
122.08347301
121.306743959
120.50061508
119.664240902
118.796779898
117.897396648
116.965264254
115.999567093
114.999503957
113.964291562
112.893168648
111.785400629
110.640284944
109.457157324
108.235399224
106.974446568
105.673799997
104.333037132
102.95182717
101.529948201
100.06730802
98.563968556
97.0201756782
95.4363946902
93.8133539561
92.1520973379
90.4540468137
88.72107546
86.9555955018
85.160660787
83.3400899294
81.4986036517
79.6419896744
77.7773061679
75.9131443722
74.0600213091
72.2310365869
70.4422744783
68.7125045781
138.771686961
138.540059857
138.238776194
137.927901215
137.623150706
137.331203219
137.052291587
136.783219843
136.520306371
136.260262665
136.000329675
135.738271115
135.472295394
135.20095421
134.923051515
134.63757086
134.343619986
134.040389859
133.727125104
133.403103059
133.067619095
132.719976352
132.359479114
131.98542771
131.59711579
131.19382902
130.774843214
130.339423722
129.886825119
129.416291125
128.927054731
128.418338506
127.889355037
127.339307482
126.76739016
126.172789202
125.554683232
124.912244128
124.244637872
123.551025613
122.830564803
122.082410838
121.305718471
120.499643487
119.663344458
118.795984693
117.89673451
116.964773866
115.999295383
114.999507946
113.964640404
112.893946202
111.786708512
110.642246213
109.459920875
108.239144682
106.979389856
105.680201422
104.341210217
102.962148907
101.542870993
100.083373274
98.5838223124
97.0445859662
95.4662705106
93.8497644788
92.1962901087
90.5074634625
88.7853624906
87.0326040762
85.2524282427
83.4487912481
81.6264626921
79.7911325046
77.9495413528
76.1096671943
74.281109307
72.476002623
70.7098666387
69.0025689132
139.105742135
138.742569982
138.342826212
137.973955988
137.636442548
137.328426934
137.043136042
136.772493271
136.51017374
136.251552448
135.993212984
135.732625136
135.467890184
135.19754182
134.920404848
134.635497603
134.341964609
134.039030423
133.72596819
133.402078759
133.066676313
132.719075972
132.358594192
131.984538171
131.59620779
131.192892976
130.773872639
130.33841442
129.885774595
129.415197991
128.925918361
128.417158911
127.888132786
127.338043563
126.766085918
126.171446444
125.553304525
124.910833079
124.243199418
123.549566812
122.829094248
122.080939025
121.304258195
120.498210075
119.661956194
118.794663534
117.895507003
116.963672237
115.998358824
114.998784044
113.964186477
112.893831566
111.787016991
110.64307908
109.461400399
108.241418952
106.982639023
105.684642333
104.347103495
102.969807369
101.552669261
100.095758632
98.5993269026
97.063840147
95.4900172826
93.8788744156
92.2317756204
90.5504901112
88.8372545973
87.0948402314
85.3266211926
83.536641701
81.729673011
79.9112583072
78.0877481082
76.2663355175
74.4552811122
72.6649034389
70.9083552131
69.2041433521
139.655515317
139.001574231
138.449394152
138.011910119
137.64039958
137.318391614
137.029369126
136.759200068
136.498792332
136.242359264
135.986017634
135.727087114
135.463656717
135.194300293
134.917897439
134.633520215
134.340359994
134.037680056
133.724784288
133.400997342
133.065651516
132.718069665
132.35758158
131.98350354
131.595139946
131.191784123
130.772717519
130.337209674
129.88451822
129.413889194
128.924557125
128.415745864
127.886669176
127.336531286
126.76452751
126.169844775
125.551661719
124.909151754
124.24148306
123.547818599
122.827319253
122.079144091
121.302451938
120.496403303
119.660162394
118.792899357
117.893792819
116.962032799
115.996824067
114.997390009
113.962977632
112.892861957
111.786352079
110.642798038
109.461598738
108.242211159
106.984162334
105.687062358
104.350619458
102.974658291
101.559141198
100.10419302
98.6101300073
97.0774934244
95.507088295
93.9000276557
92.2577823306
90.5822351906
88.8757390568
87.1411789276
85.3820273281
83.6023925748
81.8070442812
80.0014058051
78.1914844174
76.3836477197
74.5845110805
72.8015420963
71.0417450621
69.3134247846
140.650752884
139.292936101
138.502187306
138.002341784
137.611498494
137.287739684
137.003325117
136.738816466
136.483412284
136.230966433
135.977653312
135.720960551
135.459151836
135.190950957
134.915357285
134.631535379
134.338746671
134.036306355
133.723556878
133.399847537
133.064513644
132.716924709
132.356411466
131.982293969
131.593881787
131.190471512
130.771346641
130.335777556
129.883020007
129.412322063
128.922919473
128.414036517
127.88488719
127.334675926
126.762598319
126.167842071
125.549588524
124.907011314
124.239278345
123.545553705
122.824998736
122.076773163
121.300036901
120.493951842
119.657683878
118.7904052
117.891296943
116.95955223
115.994379662
114.995007133
113.960686711
112.890699753
111.784363041
110.641035909
109.460128667
108.241112645
106.983530985
105.687012614
104.351288674
102.976211076
101.561774286
100.108140685
98.6156700105
97.0849534202
95.5168526098
93.9125442381
92.2735690716
90.6018833927
88.8999167561
87.1706415795
85.4176055136
83.6449769112
81.8575609563
80.06077641
78.2605215227
76.4626612896
74.6727191494
72.8954334065
71.1256623313
69.3330816781
142.443861294
139.515762456
138.402232432
137.875158826
137.508055834
137.213479217
136.9520186
136.703650064
136.459292228
136.214378421
135.966213876
135.713045878
135.453644177
135.1870749
134.912572924
134.62946656
134.337131539
134.034962602
133.722356557
133.398707351
133.063414486
132.71582213
132.355271216
131.981096795
131.59261615
131.189130257
130.769925356
130.334274262
129.881439878
129.410666975
128.921189971
128.412233228
127.883010899
127.332727508
126.76057868
126.165751866
125.547427249
124.904778746
124.236975071
123.543180762
122.822557594
122.07426595
121.297466438
120.491321746
119.6549987
118.78767061
117.888519942
116.956741393
115.99154542
114.992162296
113.957846869
112.88788385
111.781594004
110.638341389
109.457541833
108.238672996
106.981286255
105.685020564
104.349618708
102.97494633
101.561014115
100.108003596
98.6162970703
97.0865121491
95.519541258
93.9165962623
92.2792586489
90.6095376297
88.9099251631
87.1834296684
85.4336573652
83.6648468154
81.8818901206
80.0903130081
78.2961842016
76.5060578406
74.7264475131
72.9624026358
71.1942242086
69.2963626588
49.2337134478
45.6848906055
43.2975694429
41.3469173065
39.6833116246
38.2351847438
36.9573197739
35.8190803627
34.7982706668
33.8780379599
33.0452070992
32.289214292
31.601380538
30.9744096166
30.4020440087
29.8788328401
29.3999763509
28.9612192318
28.5587737248
28.1892604563
27.8496599167
27.5372710175
27.2496746381
26.9847010512
26.7404007068
26.5150181905
26.3069694283
26.1148220963
25.9372789063
25.7731630781
25.6214051823
25.4810310218
25.3511508103
25.2309501593
25.119682903
25.0166654852
24.9212718726
24.8329281746
24.7511069878
24.675322526
24.6051280156
24.5401182023
24.4799371369
24.4241897735
24.3725388952
24.3246732071
24.2803016899
24.2391552472
24.200986369
24.1655670248
24.1326828762
24.1021361335
24.0737468936
24.0473563327
24.0228016096
23.9999275752
23.9785978599
23.9586872237
23.9400788442
23.9226638509
23.9063417869
23.8910206893
23.8766161294
23.8630497648
23.8502484858
23.8381445815
23.8266762697
23.81578761
23.8054275402
23.7955487096
23.7861069678
23.7770616673
23.7683761305
23.7600174995
23.7519558498
23.7441632624
23.736613631
23.7292831979
23.722150959
23.7151982296
23.7084077766
23.7017635961
23.6952515225
23.6888595538
23.6825771481
23.676394299
23.6703015322
23.6642906213
23.6583547257
23.6524873197
23.6466814033
23.6409305232
23.6352302231
23.6295777836
23.6239709472
23.6184073232
23.6128847501
23.6074017721
23.6019570398
23.5965483858
23.5911733885
23.5858299999
23.5805159618
23.57522875
23.569966294
23.5647269713
23.5595089752
23.5543093774
23.5491239626
23.5439482277
23.5387765405
23.5335995456
23.5284047493
23.5231770072
23.5178963899
23.5125377397
23.5070707055
23.5014578874
23.4956513583
23.4895908813
23.4832004589
23.4763857665
23.4690291351
23.4609842795
23.4520688432
23.4420540765
23.4306510001
23.417494429
23.4021244343
23.3839598803
23.3622604609
23.3360799738
23.3042046466
23.265069481
23.2166559069
23.1563672771
23.0808970991
22.9861509493
22.8673574193
22.7196136469
22.5392238622
22.3261581382
22.0875895766
21.8414542482
21.6177888987
21.4559363801
21.3928078994
21.4485569912
21.6085471734
21.8105996548
21.941945839
21.8538041054
21.370238459
20.3332747603
18.620615532
16.210441827
13.2237255498
9.76384183459
5.62550031436
1.25802098953
52.4178885259
48.3656112901
45.6581824513
43.5130013835
41.7196848658
40.1785075561
38.8300389778
37.6361407916
36.5701512103
35.6123663975
34.7477094341
33.9642987677
33.2525150736
32.6043735565
32.0131025985
31.4728610125
30.9785489252
30.5256777949
30.110276811
29.7288216211
29.3781766645
29.0555470449
28.7584366635
28.4846118135
28.232068991
27.9990065398
27.783800348
27.5849831519
27.4012268701
27.2313273984
27.074190865
26.9288208317
26.7943070551
26.6698158975
26.5545827664
26.4479060344
26.3491413309
26.2576956128
26.1730209814
26.0946092168
26.0219873631
25.9547135723
25.8923784592
25.8346151522
25.781084645
25.7314710915
25.6854787476
25.642831832
25.6032743822
25.566568489
25.5324965743
25.5008546916
25.4714507632
25.4441041953
25.418654196
25.3949518411
25.3728583672
25.3522442633
25.3329883833
25.3149778117
25.2981082984
25.2822842403
25.2674176899
25.253426974
25.2402359464
25.2277742091
25.215977588
25.2047879128
25.1941519441
25.1840202009
25.1743465302
25.1650885057
25.1562079193
25.1476705344
25.139445041
25.1315020771
25.1238141549
25.1163563096
25.1091065026
25.102045079
25.0951537195
25.0884152875
25.081814816
25.0753397742
25.0689788858
25.0627212847
25.0565568086
25.05047643
25.0444725227
25.0385381032
25.0326654307
25.0268472856
25.0210791217
25.015357914
25.0096805575
25.0040441036
24.9984455306
24.9928824637
24.9873532003
24.9818548547
24.9763842785
24.9709391022
24.9655159291
24.9601111715
24.9547220391
24.9493452186
24.9439779704
24.9386156994
24.9332518058
24.9278817132
24.9224959048
24.9170836133
24.9116301857
24.9061157491
24.9005181105
24.8948045678
24.8889429496
24.8828854834
24.8765816175
24.8699582225
24.8629311773
24.8553923102
24.8472081219
24.8382138601
24.8282051931
24.8169242945
24.8040526736
24.7891743752
24.7717836115
24.7512338016
24.7266994055
24.6971340824
24.6611879584
24.6171211875
24.5626889455
24.4949884715
24.4103048637
24.3040013311
24.170587023
24.0042430207
23.8002099674
23.557364339
23.2819973562
22.9917066351
22.716968164
22.4978612968
22.3726640864
22.3619775659
22.45061532
22.5746236662
22.6209801061
22.4404868009
21.860995305
20.7295141671
18.932028122
16.4515586558
13.4058283438
9.90395005929
5.75655205706
1.33679159429
54.6277435599
50.6942767796
47.8317837882
45.5551646091
43.661823683
42.043981728
40.6354123859
39.3932326139
38.2875736851
37.2965404115
36.4035261317
35.5955570269
34.8622179059
34.1949338022
33.5864890272
33.0307043282
32.5222200519
32.0563464297
31.6289556014
31.2363997038
30.87544507
30.5432179148
30.2371577351
29.9549772355
29.6946275578
29.4542681532
29.2322411117
29.0270493422
28.8373378267
28.6618773835
28.499550248
28.3493370072
28.2103054474
28.0816011787
27.9624400511
27.8521018113
27.749924153
27.6552968909
27.5676563902
27.4864810816
27.4112884781
27.3416331792
27.2771048432
27.2173190851
27.1619207119
27.1105808029
27.0629935331
27.0188751423
26.9779626256
26.9400114816
26.9047950992
26.8721023623
26.8417367022
26.81351574
26.7872693253
26.7628397893
26.7400814894
26.7188592038
26.6990471298
26.6805285605
26.6631957446
26.6469493746
26.6316976282
26.6173552486
26.6038431702
26.5910886409
26.5790252629
26.5675924666
26.5567345356
26.5463997753
26.5365402878
26.527112242
26.5180760597
26.5093959982
26.5010392037
26.4929749718
26.4851748115
26.4776129517
26.4702664543
26.4631146326
26.4561382681
26.4493195865
26.4426431109
26.4360957978
26.4296657912
26.4233416327
26.4171126666
26.4109691868
26.4049024881
26.3989048356
26.3929684926
26.3870862797
26.3812533616
26.3754662075
26.3697209662
26.3640140087
26.3583415161
26.3526999362
26.3470869637
26.3414996355
26.3359342853
26.3303879178
26.3248563344
26.3193347917
26.3138198382
26.3083068362
26.3027911439
26.2972676167
26.2917278311
26.2861644743
26.2805669897
26.2749224791
26.2692135525
26.2634173652
26.2575079538
26.2514471139
26.2451983541
26.2387090407
26.2319206611
26.2247526955
26.2171109646
26.2088755456
26.1998977374
26.1899962215
26.1789478366
26.1664674272
26.1522059225
26.1357106304
26.1164254881
26.0936470989
26.0664775016
26.0337754169
25.9940727016
25.9454743849
25.8855302813
25.8110651903
25.7179956984
25.6011896057
25.4544952232
25.2712414609
25.0456433665
24.7754809596
24.4660990717
24.1345794949
23.8115723329
23.5376278589
23.3521183708
23.2760127296
23.293733747
23.3398590925
23.3015852255
23.0296213932
22.3562536042
21.133252941
19.2542406122
16.7059726354
13.6016346426
10.0544800008
5.89124649835
1.41447067324
56.4335692219
52.7100421724
49.8108974306
47.4630396718
45.5014236209
43.8254257985
42.3687342465
41.0866485517
39.9475209914
38.9280286987
38.0104727223
37.1810542508
36.4287350899
35.7444676873
35.1206759667