/*--------------------------------*- C++ -*----------------------------------*\
| =========                 |                                                 |
| \\      /  F ield         | OpenFOAM: The Open Source CFD Toolbox           |
|  \\    /   O peration     | Version:  2106                                  |
|   \\  /    A nd           | Website:  www.openfoam.com                      |
|    \\/     M anipulation  |                                                 |
\*---------------------------------------------------------------------------*/
FoamFile
{
    version     2.0;
    format      ascii;
    arch        "LSB;label=32;scalar=64";
    class       surfaceScalarField;
    location    "0.095";
    object      phi;
}
// * * * * * * * * * * * * * * * * * * * * * * * * * * * * * * * * * * * * * //

dimensions      [0 3 -1 0 0 0 0];

oriented        oriented;

internalField   nonuniform List<scalar> 
22100
(
3.38461200857e-05
1.6153879915e-05
2.24572085829e-05
1.13889114649e-05
1.62585499123e-05
6.19865864126e-06
1.27977705799e-05
3.46077930547e-06
1.0804634129e-05
1.99313642397e-06
9.6045789971e-06
1.20005510713e-06
8.85131079739e-06
7.53268174824e-07
8.36434501517e-06
4.86965758991e-07
8.04433605707e-06
3.20008932503e-07
7.83285903491e-06
2.11476996068e-07
7.69344580617e-06
1.39413201432e-07
7.60233442184e-06
9.11113576213e-08
7.54363588476e-06
5.86985112258e-08
7.50658457623e-06
3.70512844471e-08
7.48385380595e-06
2.27307470629e-08
7.47046552243e-06
1.3388261725e-08
7.46305628713e-06
7.40921381284e-09
7.4593609701e-06
3.69529479821e-09
7.45781130868e-06
1.54963775115e-09
7.45762141211e-06
1.89870675724e-10
7.4581837622e-06
-5.62378106612e-10
7.45906036784e-06
-8.76634997232e-10
7.46000922961e-06
-9.48891641408e-10
7.46091627964e-06
-9.07079700169e-10
7.4617265522e-06
-8.103014463e-10
7.46241723141e-06
-6.90707543615e-10
7.46298519101e-06
-5.67988207024e-10
7.46343856608e-06
-4.53404570775e-10
7.4637910288e-06
-3.52493143204e-10
7.46405823558e-06
-2.67237824065e-10
7.46425576759e-06
-1.97563237735e-10
7.4643979436e-06
-1.42207149924e-10
7.46449725158e-06
-9.9339010158e-11
7.4645641893e-06
-6.69688567255e-11
7.4646065586e-06
-4.24005855035e-11
7.46462912709e-06
-2.25994724517e-11
7.46463799734e-06
-8.90000638192e-12
7.46463854613e-06
-5.76785439939e-13
7.4646337825e-06
4.73733858005e-12
7.46462555478e-06
8.20293940595e-12
7.46461518052e-06
1.03511870373e-11
7.46460352418e-06
1.16355606055e-11
7.46459103428e-06
1.24716211718e-11
7.46457786766e-06
1.31495389534e-11
7.46456398214e-06
1.3867530531e-11
7.46454918742e-06
1.47737769674e-11
7.46453316679e-06
1.59966844954e-11
7.4645154968e-06
1.76449719602e-11
7.46449568873e-06
1.97846040353e-11
7.46447315857e-06
2.2509162985e-11
7.46444722231e-06
2.59171715001e-11
7.46441709873e-06
3.01046296272e-11
7.46438191052e-06
3.5167500845e-11
7.46434069494e-06
4.11919247815e-11
7.46429243964e-06
4.82293208848e-11
7.46423616591e-06
5.62480932498e-11
7.46417107134e-06
6.50725241957e-11
7.46409669608e-06
7.43579066108e-11
7.46401352478e-06
8.31567305897e-11
7.46392369099e-06
8.98182630294e-11
7.46383301873e-06
9.06530776958e-11
7.4637536929e-06
7.93030090041e-11
7.46369578341e-06
5.78855602255e-11
7.46367699296e-06
1.87697997397e-11
7.4637336832e-06
-5.67032676114e-11
7.463925415e-06
-1.91735541906e-10
7.46434916149e-06
-4.23744629762e-10
7.46515919913e-06
-8.10036103046e-10
7.46659762291e-06
-1.43842545768e-09
7.4690293875e-06
-2.43176855171e-09
7.47291130234e-06
-3.88191923625e-09
7.47951777534e-06
-6.6064774165e-09
7.49054073684e-06
-1.10229675249e-08
7.50912992499e-06
-1.85891962705e-08
7.54301181733e-06
-3.38818973412e-08
7.61355584952e-06
-7.05440289364e-08
7.78335263221e-06
-1.69796776312e-07
8.24723406475e-06
-4.6388143759e-07
9.7475077243e-06
-1.5002736743e-06
-5.60645438845e-06
1.53539621252e-05
5.0217594034e-05
1.59362858467e-05
4.4244108485e-05
1.73623969543e-05
3.77794949674e-05
1.26632721073e-05
3.26461337008e-05
8.59414052537e-06
2.89380787045e-05
5.70119137408e-06
2.63596085362e-05
3.77852523168e-06
2.45875108461e-05
2.52536581883e-06
2.33734867257e-05
1.70098983324e-06
2.25435728884e-05
1.14992272173e-06
2.19783238601e-05
7.76725976855e-07
2.15957132625e-05
5.22023750967e-07
2.1339068742e-05
3.47755832359e-07
2.11690064213e-05
2.28760788273e-07
2.10580805488e-05
1.47977115798e-07
2.09871797739e-05
9.36314821479e-08
2.0943049555e-05
5.75184413258e-08
2.09165609144e-05
3.3897814207e-08
2.09015012712e-05
1.87548949538e-08
2.08937721185e-05
9.27874365664e-09
2.08904674619e-05
3.4944773593e-09
2.089000185e-05
-9.68181434638e-11
2.0890681926e-05
-1.55676382894e-09
2.08920277434e-05
-2.29476162616e-09
2.08936210593e-05
-2.50044723604e-09
2.08952101456e-05
-2.39943883859e-09
2.08966622351e-05
-2.14284843374e-09
2.08979176623e-05
-1.8234682417e-09
2.08989606287e-05
-1.49642570747e-09
2.08998004488e-05
-1.19236937328e-09
2.09004596764e-05
-9.2652234482e-10
2.09009672072e-05
-7.05151175873e-10
2.09013552468e-05
-5.30304038459e-10
2.09016454413e-05
-3.89590941127e-10
2.09018391509e-05
-2.60735869143e-10
2.09019651525e-05
-1.68458571899e-10
2.09020422955e-05
-9.97963084743e-11
2.09020847234e-05
-5.13782377464e-11
2.09021049382e-05
-2.08385658592e-11
2.09021104027e-05
-7.71384954901e-13
2.09021058582e-05
1.27060337229e-11
2.09020947435e-05
2.14278553452e-11
2.09020794202e-05
2.69241814716e-11
2.09020612866e-05
3.05720858604e-11
2.09020410753e-05
3.33257755399e-11
2.09020190839e-05
3.58198534411e-11
2.09019953186e-05
3.84963165022e-11
2.09019695759e-05
4.16953268019e-11
2.09019415123e-05
4.56665518277e-11
2.09019107509e-05
5.05076228877e-11
2.09018768695e-05
5.63548954002e-11
2.09018394498e-05
6.33010043719e-11
2.09017981451e-05
7.13707338178e-11
2.09017527585e-05
8.05117105059e-11
2.09017033609e-05
9.05442972929e-11
2.0901650488e-05
1.01058192045e-10
2.09015954953e-05
1.11202051149e-10
2.09015411915e-05
1.19344491965e-10
2.0901492663e-05
1.22858172544e-10
2.09014589386e-05
1.1685115676e-10
2.09014548002e-05
9.39217801257e-11
2.09015060835e-05
3.93307882985e-11
2.09016609969e-05
-7.56492962088e-11
2.09019894653e-05
-2.70615935134e-10
2.09026099465e-05
-6.01732735495e-10
2.09036453435e-05
-1.092108221e-09
2.09052623101e-05
-1.80870160178e-09
2.09078285813e-05
-2.99001414129e-09
2.09119072352e-05
-4.88869226244e-09
2.09183927686e-05
-7.92396692708e-09
2.09287523744e-05
-1.27913886524e-08
2.0945555861e-05
-2.06854217769e-08
2.09730382535e-05
-3.40888792858e-08
2.10183721348e-05
-5.63568467573e-08
2.10951179854e-05
-9.53350349721e-08
2.12299790186e-05
-1.68742917151e-07
2.1477522774e-05
-3.18087772133e-07
2.19494375302e-05
-6.41711511911e-07
2.28667914809e-05
-1.38123535782e-06
2.45759823213e-05
-3.20946447639e-06
-7.29936786032e-06
2.62688955988e-05
5.35171044247e-05
1.24191813931e-05
5.29349650516e-05
1.79445362757e-05
4.96538336536e-05
1.59444034586e-05
4.5840172068e-05
1.24078020686e-05
4.24400824352e-05
9.10128096541e-06
3.9729167308e-05
6.48944032057e-06
3.7687315726e-05
4.56721736058e-06
3.61977040658e-05
3.19060145337e-06
3.51327086522e-05
2.2149180931e-06
3.43825519584e-05
1.52688262925e-06
3.38609423028e-05
1.04363336506e-06
3.35028461498e-05
7.05851945679e-07
3.32603468826e-05
4.71260017747e-07
3.30986505079e-05
3.09673453883e-07
3.29927804375e-05
1.9950151721e-07
3.29249968261e-05
1.25302017481e-07
3.28828360208e-05
7.60585825843e-08
3.28576401961e-05
4.395068045e-08
3.28434526817e-05
2.34662160583e-08
3.28361972159e-05
1.07498986825e-08
3.28330011556e-05
3.09919643926e-09
3.28326168868e-05
-1.1725408731e-09
3.28334492453e-05
-3.12716500345e-09
3.28349101898e-05
-3.96143566509e-09
3.28365828331e-05
-4.07212573309e-09
3.28382241591e-05
-3.78421883751e-09
3.2839707381e-05
-3.30673614873e-09
3.28409773779e-05
-2.76647058843e-09
3.28420215747e-05
-2.23661548841e-09
3.28428509566e-05
-1.75595423773e-09
3.28434877556e-05
-1.34200038495e-09
3.28439569979e-05
-9.99596627499e-10
3.2844294506e-05
-7.27149490306e-10
3.28445557689e-05
-5.22048501152e-10
3.28447509696e-05
-3.63707218507e-10
3.28448716872e-05
-2.20558979683e-10
3.28449448794e-05
-1.24612864693e-10
3.28449855228e-05
-6.15224755905e-11
3.28450039255e-05
-1.92132267878e-11
3.2845006868e-05
9.72626691675e-12
3.2844999468e-05
2.87929825271e-11
3.28449854388e-05
4.09211212126e-11
3.28449670937e-05
4.8885979927e-11
3.28449457948e-05
5.45922534995e-11
3.28449222822e-05
5.92968523779e-11
3.28448968825e-05
6.3858234293e-11
3.28448695973e-05
6.89427810458e-11
3.28448402262e-05
7.50023250874e-11
3.28448086836e-05
8.20177364589e-11
3.28447749057e-05
9.01018149184e-11
3.28447389284e-05
9.9246645315e-11
3.28447010249e-05
1.09239479823e-10
3.28446618661e-05
1.19631798196e-10
3.28446227622e-05
1.29607485074e-10
3.28445860795e-05
1.37702126982e-10
3.28445559584e-05
1.41289452737e-10
3.28445392671e-05
1.36007639641e-10
3.28445462176e-05
1.15881692752e-10
3.28445933987e-05
6.96426781809e-11
3.28447081624e-05
-2.08719636369e-11
3.28449405697e-05
-1.93107732882e-10
3.28453770908e-05
-5.12199480081e-10
3.28460587135e-05
-9.5226169387e-10
3.28470549642e-05
-1.59799753016e-09
3.28486196629e-05
-2.65681345483e-09
3.28511510147e-05
-4.34005775973e-09
3.28551637757e-05
-7.00278044921e-09
3.28614936407e-05
-1.12185624146e-08
3.28714917763e-05
-1.7922106602e-08
3.2887388896e-05
-2.8688512649e-08
3.29129576971e-05
-4.62542291789e-08
3.29537394121e-05
-7.48706019826e-08
3.30199251199e-05
-1.22542557119e-07
3.31291286375e-05
-2.04538545234e-07
3.33115407133e-05
-3.51154983174e-07
3.36175534403e-05
-6.24100498667e-07
3.41221955056e-05
-1.14635358295e-06
3.48980066497e-05
-2.15704647312e-06
3.58151720971e-05
-4.12662976879e-06
-7.43178579888e-06
3.59475905593e-05
5.35105658292e-05
8.90861553523e-06
5.55742199871e-05
1.58808820676e-05
5.5242478312e-05
1.62761450884e-05
5.35977807246e-05
1.40524996157e-05
5.15418444873e-05
1.11572171612e-05
4.95802850594e-05
8.45099971035e-06
4.79243752536e-05
6.22312712639e-06
4.66181994716e-05
4.49677719643e-06
4.56305870327e-05
3.20253049115e-06
4.49053312719e-05
2.25213835036e-06
4.43844393174e-05
1.56452528125e-06
4.40172296345e-05
1.07306159038e-06
4.37627491193e-05
7.25740496474e-07
4.3589362425e-05
4.83060112833e-07
4.3473344582e-05
3.15519325311e-07
4.33972858129e-05
2.01360751128e-07
4.33486327672e-05
1.2471159118e-07
4.33184698781e-05
7.41135301188e-08
4.33005523853e-05
4.13836670257e-08
4.32905682588e-05
2.07339818911e-08
4.32855462289e-05
8.12118305208e-09
4.3283443078e-05
9.30567442575e-10
4.32833012971e-05
-2.98542540597e-09
4.32841076909e-05
-4.76786996592e-09
4.32853390415e-05
-5.30351698179e-09
4.3286690153e-05
-5.13537281023e-09
4.32879888189e-05
-4.60544713366e-09
4.3289147724e-05
-3.92542301553e-09
4.32901315776e-05
-3.22051809283e-09
4.32909357787e-05
-2.56020533168e-09
4.32915728981e-05
-1.97917016099e-09
4.32920635778e-05
-1.49032672288e-09
4.32924285577e-05
-1.09217895032e-09
4.32926810159e-05
-7.74554332645e-10
4.32928429697e-05
-5.25705619242e-10
4.32929503561e-05
-3.27987004994e-10
4.32930048562e-05
-1.79152740709e-10
4.3293041865e-05
-9.85704943744e-11
4.32930597495e-05
-3.71368801389e-11
4.3293063542e-05
5.89546868039e-12
4.32930575562e-05
3.47427528188e-11
4.32930451603e-05
5.32831339894e-11
4.32930282199e-05
6.57938988349e-11
4.32930078308e-05
7.49476110904e-11
4.32929846519e-05
8.24398444646e-11
4.32929590265e-05
8.94464723989e-11
4.32929311562e-05
9.67767557981e-11
4.32929011869e-05
1.04937364253e-10
4.32928692199e-05
1.1395286424e-10
4.32928354195e-05
1.23871143243e-10
4.329280017e-05
1.34463853257e-10
4.32927641964e-05
1.45177493112e-10
4.32927287102e-05
1.55078917103e-10
4.32926956014e-05
1.6267586399e-10
4.32926676746e-05
1.65591372342e-10
4.32926488988e-05
1.60032900094e-10
4.32926450275e-05
1.39850952395e-10
4.32926664324e-05
9.44505960726e-11
4.32927295406e-05
6.50793825774e-12
4.32928584259e-05
-1.49784531415e-10
4.32930582412e-05
-3.92949907405e-10
4.32934404011e-05
-8.94383494055e-10
4.32941355439e-05
-1.64742342363e-09
4.32953174473e-05
-2.77991376609e-09
4.32971895519e-05
-4.52892711157e-09
4.3300104412e-05
-7.25492664782e-09
4.33046330526e-05
-1.15314306027e-08
4.33116764209e-05
-1.82619390925e-08
4.3322656915e-05
-2.89026049246e-08
4.33398036979e-05
-4.58352939001e-08
4.33665524258e-05
-7.30029529045e-08
4.34086861976e-05
-1.1700437046e-07
4.34754304974e-05
-1.89286852569e-07
4.35811560085e-05
-3.10264045951e-07
4.37469171775e-05
-5.16916134334e-07
4.39990912788e-05
-8.76274594277e-07
4.43569048575e-05
-1.50416717236e-06
4.47843017385e-05
-2.58444340758e-06
4.50394591968e-05
-4.38178730484e-06
-6.93074382591e-06
4.45384175078e-05
5.27351377623e-05
6.17347774286e-06
5.57309336126e-05
1.28850861668e-05
5.73114730008e-05
1.46956056532e-05
5.76109912211e-05
1.37529813545e-05
5.71335256205e-05
1.16346827205e-05
5.6319479981e-05
9.26504531158e-06
5.54490173139e-05
7.09358975301e-06
5.46630371032e-05
5.28275736883e-06
5.40137898537e-05
3.85177770197e-06
5.35063306672e-05
2.75959749745e-06
5.31245370543e-05
1.94631885654e-06
5.28454062979e-05
1.35219230989e-06
5.26460410679e-05
9.25105689942e-07
5.25065445841e-05
6.22556559907e-07
5.24108269513e-05
4.112369213e-07
5.23464476001e-05
2.65740064579e-07
5.23040831563e-05
1.6707599585e-07
5.22769100871e-05
1.01286558593e-07
5.22600307697e-05
5.82629426377e-08
5.22499830315e-05
3.07816778291e-08
5.22443448004e-05
1.37593725691e-08
5.22415790265e-05
3.69630107587e-09
5.22405107777e-05
-1.91721548676e-09
5.22404523102e-05
-4.70944095491e-09
5.2240927212e-05
-5.7784582777e-09
5.22416406303e-05
-5.84883317831e-09
5.22424174984e-05
-5.38236019503e-09
5.22431594116e-05
-4.66738375234e-09
5.22438165196e-05
-3.87767560231e-09
5.22443679747e-05
-3.11171105532e-09
5.22448106061e-05
-2.42185248031e-09
5.22451510555e-05
-1.8308264312e-09
5.2245402322e-05
-1.34349382805e-09
5.22455828251e-05
-9.55102539254e-10
5.22457111641e-05
-6.54086082339e-10
5.22458084373e-05
-4.25298963202e-10
5.22458888597e-05
-2.5961335654e-10
5.22459376371e-05
-1.47387339945e-10
5.22459697459e-05
-6.92864107924e-11
5.22459811975e-05
-5.59682003269e-12
5.22459802035e-05
3.56983585267e-11
5.22459712112e-05
6.22394779584e-11
5.22459569564e-05
8.00139024548e-11
5.22459390361e-05
9.28325995844e-11
5.22459183714e-05
1.0306751106e-10
5.22458957716e-05
1.12008442912e-10
5.22458713334e-05
1.21178336429e-10
5.22458437389e-05
1.32497581501e-10
5.22458141113e-05
1.43548187943e-10
5.2245782702e-05
1.55248559426e-10
5.22457498449e-05
1.67287460764e-10
5.22457162538e-05
1.78731954454e-10
5.22456831288e-05
1.88164666008e-10
5.22456523532e-05
1.93412220612e-10
5.22456269518e-05
1.90956935867e-10
5.22456125296e-05
1.74423841467e-10
5.22456243977e-05
1.27954836749e-10
5.22456691176e-05
4.97042364454e-11
5.22457705276e-05
-9.49274118372e-11
5.22459204856e-05
-2.99766787598e-10
5.22462005709e-05
-6.73058766344e-10
5.22466657384e-05
-1.35957247918e-09
5.22473682348e-05
-2.3499380306e-09
5.22484457396e-05
-3.85743345474e-09
5.22501037163e-05
-6.18691636348e-09
5.22526485055e-05
-9.79972613313e-09
5.22565401509e-05
-1.54230841323e-08
5.2262485103e-05
-2.42068984706e-08
5.22715717991e-05
-3.79893070261e-08
5.22854723944e-05
-5.97358924068e-08
5.23067421788e-05
-9.42727371926e-08
5.23392581868e-05
-1.4952037555e-07
5.23886394089e-05
-2.38668072187e-07
5.24622620496e-05
-3.83886679872e-07
5.25676780972e-05
-6.22332163084e-07
5.2706353334e-05
-1.01494980975e-06
5.28569086836e-05
-1.65472249199e-06
5.29374744477e-05
-2.66500915469e-06
5.27308579627e-05
-4.17517092287e-06
-6.1163805047e-06
5.19164947831e-05
5.19834866035e-05
4.18999110862e-06
5.50586645149e-05
9.80990820395e-06
5.76386146385e-05
1.21156554808e-05
5.93259064079e-05
1.20656895428e-05
6.02280219026e-05
1.0732567183e-05
6.05929391384e-05
8.90012803766e-06
6.06483058607e-05
7.03822299179e-06
6.05532263108e-05
5.37783687996e-06
6.04030132882e-05
4.00199068747e-06
6.02480026761e-05
2.91460807295e-06
6.01109171993e-05
2.08340429696e-06
5.99992097332e-05
1.4638997391e-06
5.99127603636e-05
1.01155502235e-06
5.98482494874e-05
6.87067398547e-07
5.98014431103e-05
4.58043260146e-07
5.9768272069e-05
2.98911066519e-07
5.97452600918e-05
1.90087932484e-07
5.97296250993e-05
1.16921509999e-07
5.97192321038e-05
6.86558968005e-08
5.97124891952e-05
3.75245456592e-08
5.97082419865e-05
1.80065417373e-08
5.97056977651e-05
6.24048422041e-09
5.97042515229e-05
-4.71010670724e-10
5.97035136854e-05
-3.97164114535e-09
5.9703212366e-05
-5.47717846117e-09
5.9703166667e-05
-5.80317674378e-09
5.97032591342e-05
-5.47487310601e-09
5.97034156846e-05
-4.82398290964e-09
5.97035914585e-05
-4.053500317e-09
5.97037615832e-05
-3.28188749391e-09
5.97039134121e-05
-2.57373294911e-09
5.97040420059e-05
-1.9594699144e-09
5.9704147171e-05
-1.44870511249e-09
5.97042326632e-05
-1.04063653688e-09
5.97043021181e-05
-7.23578993029e-10
5.97043565976e-05
-4.79814892942e-10
5.97043936983e-05
-2.9675166764e-10
5.97044107307e-05
-1.64460524646e-10
5.97044037583e-05
-6.23575236219e-11
5.97043950404e-05
3.07749767456e-12
5.97043844668e-05
4.62305639205e-11
5.97043755598e-05
7.11079402435e-11
5.97043643973e-05
9.11392927103e-11
5.97043502696e-05
1.06922691384e-10
5.97043330971e-05
1.20201030518e-10
5.97043126477e-05
1.3241863834e-10
5.97042892643e-05
1.44524249062e-10
5.97042647156e-05
1.57011375025e-10
5.97042383954e-05
1.69835859719e-10
5.97042107795e-05
1.82832829888e-10
5.97041827139e-05
1.95319983644e-10
5.97041553822e-05
2.06027882681e-10
5.97041304707e-05
2.13038524989e-10
5.97041102038e-05
2.13642754018e-10
5.97040968988e-05
2.04228839205e-10
5.97040907542e-05
1.80538530531e-10
5.97040793787e-05
1.39302130979e-10
5.97040797976e-05
4.92583468258e-11
5.97040902668e-05
-1.05421773606e-10
5.97042236782e-05
-4.33201309379e-10
5.97044747457e-05
-9.24147119071e-10
5.97048046088e-05
-1.68945457629e-09
5.97053071027e-05
-2.85244914765e-09
5.9706067796e-05
-4.61814385089e-09
5.97071988322e-05
-7.31796894637e-09
5.97088641144e-05
-1.14650215227e-08
5.97113015578e-05
-1.78605358366e-08
5.97148565996e-05
-2.77619446024e-08
5.9720026293e-05
-4.31590033323e-08
5.97275102046e-05
-6.72198074979e-08
5.97382485928e-05
-1.05011127062e-07
5.97533561569e-05
-1.64627939374e-07
5.97737588618e-05
-2.59070777262e-07
5.97989883241e-05
-4.09116138635e-07
5.98240002401e-05
-6.47344070675e-07
5.98318500816e-05
-1.02279962925e-06
5.97797567169e-05
-1.60262911298e-06
5.95772373681e-05
-2.46248976571e-06
5.90598388357e-05
-3.65777245713e-06
-5.10962396251e-06
5.80530823678e-05
5.1437305806e-05
2.75268527158e-06
5.42658222214e-05
6.98139173743e-06
5.72496467217e-05
9.13183093123e-06
5.97900332639e-05
9.52530295979e-06
6.17201357689e-05
8.80246463512e-06
6.30883116578e-05
7.53195210874e-06
6.40167236648e-05
6.10981094678e-06
6.46292373847e-05
4.76532312325e-06
6.5025791104e-05
3.60543693222e-06
6.52790421521e-05
2.66135698951e-06
6.54388999856e-05
1.923546428e-06
6.55385625505e-05
1.36423713789e-06
6.55997268079e-05
9.50390727432e-07
6.56364451248e-05
6.50349042961e-07
6.5657776383e-05
4.3671196187e-07
6.56695416152e-05
2.87145793073e-07
6.56754663566e-05
1.84163149379e-07
6.5677919803e-05
1.14468022154e-07
6.56783935541e-05
6.81821050461e-08
6.56778123382e-05
3.81057220501e-08
6.56767387637e-05
1.90800781867e-08
6.56755108527e-05
7.46835830026e-09
6.5674307e-05
7.32805419868e-10
6.56732234697e-05
-2.88814838429e-09
6.5672294265e-05
-4.54801356254e-09
6.56715260692e-05
-5.03502399434e-09
6.56709087764e-05
-4.85762703232e-09
6.56704245528e-05
-4.33980918127e-09
6.56700530354e-05
-3.68203506465e-09
6.56697743383e-05
-3.00324331624e-09
6.56695702007e-05
-2.36964722269e-09
6.56694245332e-05
-1.81385117689e-09
6.56693235153e-05
-1.34773102824e-09
6.56692537018e-05
-9.70861861613e-10
6.5669204494e-05
-6.74406676903e-10
6.56691703459e-05
-4.45702376063e-10
6.56691444981e-05
-2.70942713107e-10
6.56691233095e-05
-1.4331515963e-10
6.56691174659e-05
-5.65599859572e-11
6.56691225257e-05
-2.02790549246e-12
6.56691198308e-05
4.88827682028e-11
6.56691109445e-05
7.99543560785e-11
6.56691002542e-05
1.01790706758e-10
6.56690880691e-05
1.19067956693e-10
6.5669074094e-05
1.34135604004e-10
6.56690579727e-05
1.48499942148e-10
6.56690394021e-05
1.63057303513e-10
6.56690184452e-05
1.77933789631e-10
6.56689968986e-05
1.9135038578e-10
6.56689740106e-05
2.05689458667e-10
6.56689496952e-05
2.19602998039e-10
6.56689245324e-05
2.31156889619e-10
6.56688994244e-05
2.38113053329e-10
6.56688756874e-05
2.37348446167e-10
6.56688554176e-05
2.24469890517e-10
6.56688427085e-05
1.93219651088e-10
6.56688463753e-05
1.35607094606e-10
6.56688448858e-05
5.07202280528e-11
6.56688862799e-05
-1.46841916692e-10
6.56689467583e-05
-4.93703392376e-10
6.56690456344e-05
-1.02304472914e-09
6.56691933536e-05
-1.83719311229e-09
6.5669400487e-05
-3.05960104015e-09
6.56696797427e-05
-4.89741884291e-09
6.56700370076e-05
-7.67525357586e-09
6.5670463152e-05
-1.1891184184e-08
6.56709180366e-05
-1.83154349093e-08
6.56712994017e-05
-2.81433194917e-08
6.56713847199e-05
-4.32443301594e-08
6.56707195729e-05
-6.65546694203e-08
6.56684036848e-05
-1.02695244956e-07
6.56626178482e-05
-1.58842101966e-07
6.56496965972e-05
-2.46149513707e-07
6.56222761355e-05
-3.81695666877e-07
6.55657382989e-05
-5.90806219737e-07
6.545188987e-05
-9.08951172178e-07
6.52295825061e-05
-1.38032173476e-06
6.48148057338e-05
-2.04771295473e-06
6.40876614049e-05
-2.93062815642e-06
-3.96733052697e-06
6.29453680126e-05
5.10850430159e-05
1.66764222267e-06
5.36118470008e-05
4.45458770376e-06
5.66873213419e-05
6.05635654139e-06
5.96894534105e-05
6.52317085005e-06
6.22997339624e-05
6.19218404166e-06
6.44136906304e-05
5.41799540163e-06
6.60471731034e-05
4.47632843677e-06
6.72685769227e-05
3.54391926895e-06
6.81598075645e-05
2.71420625663e-06
6.87975973888e-05
2.02356713189e-06
6.92464682474e-05
1.47467553525e-06
6.9557528464e-05
1.0531768854e-06
6.97697838932e-05
7.38135260048e-07
6.99122572569e-05
5.07875638756e-07
7.00061369254e-05
3.42832251228e-07
7.00666532406e-05
2.26629435038e-07
7.0104603777e-05
1.46212570495e-07
7.01275436709e-05
9.15280865197e-08
7.01406902989e-05
5.50354365097e-08
7.01475973447e-05
3.11986370257e-08
7.01506499501e-05
1.60274345899e-08
7.01514248188e-05
6.69345209945e-09
7.01509415163e-05
1.21607029843e-09
7.01498332115e-05
-1.77988240604e-09
7.01484924511e-05
-3.20729447251e-09
7.01471432214e-05
-3.6858390744e-09
7.01459057147e-05
-3.62016885664e-09
7.01448348394e-05
-3.26898560799e-09
7.01439462433e-05
-2.79349257707e-09
7.01432332578e-05
-2.29031157641e-09
7.01426775998e-05
-1.81404092712e-09
7.01422559347e-05
-1.39223327872e-09
7.01419438509e-05
-1.03568871086e-09
7.01417180185e-05
-7.45065741371e-10
7.01415584516e-05
-5.14873825913e-10
7.01414493046e-05
-3.36591232746e-10
7.0141379905e-05
-2.01583826984e-10
7.01413396331e-05
-1.03089335362e-10
7.01413116747e-05
-2.86496581794e-11
7.01412851759e-05
2.44239883246e-11
7.01412747599e-05
5.92557060772e-11
7.01412684257e-05
8.62482704927e-11
7.01412627678e-05
1.0740867915e-10
7.01412565675e-05
1.25226899014e-10
7.01412491553e-05
1.41505852743e-10
7.01412402099e-05
1.57404430249e-10
7.01412296781e-05
1.73551121573e-10
7.01412174955e-05
1.90081753992e-10
7.01412021173e-05
2.06696756883e-10
7.014118466e-05
2.23116042453e-10
7.01411659166e-05
2.38315877173e-10
7.01411464403e-05
2.50603169165e-10
7.0141126922e-05
2.576028894e-10
7.01411081446e-05
2.56099393912e-10
7.01410906588e-05
2.41929414286e-10
7.01410737761e-05
2.10074482404e-10
7.01410541981e-05
1.55155833698e-10
7.01410392053e-05
6.56841671569e-11
7.01410039493e-05
-1.11613312943e-10
7.0140990707e-05
-4.80486725025e-10
7.01409706326e-05
-1.00299374726e-09
7.01409176702e-05
-1.78425185261e-09
7.01407990832e-05
-2.9410337734e-09
7.01405556371e-05
-4.65399182246e-09
7.01400798623e-05
-7.199497763e-09
7.01391845662e-05
-1.0995906891e-08
7.01375490056e-05
-1.66798902839e-08
7.01346254309e-05
-2.52197556556e-08
7.01294875594e-05
-3.8106464506e-08
7.01205820249e-05
-5.76491359236e-08
7.01053299213e-05
-8.74431422834e-08
7.00793471988e-05
-1.3285938025e-07
7.00352059683e-05
-2.02008271541e-07
6.99603761275e-05
-3.06865805364e-07
6.98339331437e-05
-4.64363221344e-07
6.96217702063e-05
-6.96788215666e-07
6.92711055924e-05
-1.02965711149e-06
6.87075555328e-05
-1.48416286752e-06
6.78407896231e-05
-2.06386225803e-06
-2.72792379626e-06
6.66013829181e-05
5.08804139932e-05
7.87228196139e-07
5.31704691282e-05
2.16453252087e-06
5.62177554035e-05
3.00907021854e-06
5.94382771212e-05
3.30264909086e-06
6.24449749239e-05
3.18548619796e-06
6.50382484363e-05
2.82472185106e-06
6.7154838294e-05
2.35973854278e-06
6.88134914469e-05
1.88526608224e-06
7.0073020773e-05
1.45467689819e-06
7.10053984513e-05
1.09118942101e-06
7.16808206226e-05
7.9925332999e-07
7.21607387683e-05
5.73258703316e-07
7.24956002711e-05
4.03273718014e-07
7.27250704682e-05
2.78405399775e-07
7.28793709631e-05
1.88531712723e-07
7.29809698751e-05
1.25030479415e-07
7.30462352873e-05
8.09471155148e-08
7.30868819616e-05
5.08813705862e-08
7.31111590556e-05
3.07583022281e-08
7.31247851562e-05
1.75724970394e-08
7.31316628069e-05
9.14974528569e-09
7.31344123872e-05
3.9438337303e-09
7.31347591099e-05
8.69309269937e-10
7.31338073031e-05
-8.2811524794e-10
7.31322530571e-05
-1.65309068001e-09
7.3130513882e-05
-1.94670970489e-09
7.31288269947e-05
-1.93333127696e-09
7.31273146184e-05
-1.75666230198e-09
7.31260276562e-05
-1.50658512298e-09
7.31249746443e-05
-1.23735395661e-09
7.31241406669e-05
-9.80114319404e-10
7.31234988427e-05
-7.50454336975e-10
7.31230180187e-05
-5.54903782369e-10
7.31226672301e-05
-3.94311709091e-10
7.31224183994e-05
-2.66077105734e-10
7.31222475545e-05
-1.65783856299e-10
7.31221343523e-05
-8.84250335017e-11
7.31220596438e-05
-2.842869158e-11
7.31220146189e-05
1.63268227078e-11
7.31219911123e-05
4.78848432483e-11
7.31219771276e-05
7.31979512556e-11
7.31219697102e-05
9.36249602995e-11
7.31219657535e-05
1.11324077035e-10
7.31219630598e-05
1.27877694212e-10
7.31219602136e-05
1.44309166725e-10
7.31219563435e-05
1.61233171074e-10
7.31219509418e-05
1.78914756073e-10
7.31219437299e-05
1.97259161276e-10
7.31219345763e-05
2.1581883681e-10
7.31219235479e-05
2.34115025921e-10
7.31219107339e-05
2.51102309462e-10
7.3121896203e-05
2.651087784e-10
7.31218799667e-05
2.73816234712e-10
7.31218619458e-05
2.74097731258e-10
7.31218420184e-05
2.61831944482e-10
7.31218202299e-05
2.3183420857e-10
7.31217970929e-05
1.7826174005e-10
7.31217650156e-05
9.77310569338e-11
7.31217138789e-05
-6.05053363814e-11
7.312161933e-05
-3.85965092338e-10
7.31214699871e-05
-8.53676831841e-10
7.31212188129e-05
-1.53310309083e-09
7.31207921152e-05
-2.51436093537e-09
7.31200669018e-05
-3.92880173532e-09
7.31188388295e-05
-5.97144654833e-09
7.31167714465e-05
-8.92854309543e-09
7.31133135009e-05
-1.3221960879e-08
7.31075543063e-05
-1.94605738152e-08
7.3098004309e-05
-2.85564755074e-08
7.30822560925e-05
-4.19009247297e-08
7.30564677614e-05
-6.16548154642e-08
7.30143957115e-05
-9.07873245364e-08
7.29460308554e-05
-1.3364340475e-07
7.2835560175e-05
-1.96395114203e-07
7.2658503513e-05
-2.87306552597e-07
7.23782123915e-05
-4.16497089112e-07
7.19428759649e-05
-5.94320683309e-07
7.12859336185e-05
-8.2722049516e-07
7.03339335572e-05
-1.11186219306e-06
-1.4255847296e-06
6.90315945074e-05
5.0787173472e-05
5.46924603164e-11
5.29516530464e-05
5.28996701725e-11
5.59606944944e-05
2.87236911147e-11
5.92633294058e-05
1.41381439993e-11
6.24488127651e-05
2.79800928419e-12
6.52735405029e-05
-5.9245847829e-12
6.7633290626e-05
-1.16160056863e-11
6.95185709896e-05
-1.431435117e-11
7.09732623312e-05
-1.44748613011e-11
7.20644644312e-05
-1.27109712071e-11
7.28637273993e-05
-9.67175096839e-12
7.34369920962e-05
-6.03006777805e-12
7.38402682422e-05
-2.46787426311e-12
7.41186732927e-05
3.06643890537e-13
7.43072030866e-05
1.87487112811e-12
7.4432231974e-05
1.54832130154e-12
7.4513179788e-05
-7.41120775303e-13
7.45640659136e-05
-4.79634693481e-12
7.45948340997e-05
-9.92413460129e-12
7.4612421696e-05
-1.51389299864e-11
7.46215906584e-05
-1.92562185284e-11
7.4625555509e-05
-2.10557735438e-11
7.46264459927e-05
-2.12135014623e-11
7.46256381578e-05
-2.03205692199e-11
7.46240035624e-05
-1.85382331533e-11
7.46220728103e-05
-1.60040890802e-11
7.46201522015e-05
-1.27730060467e-11
7.46184043129e-05
-8.82737178456e-12
7.46169017135e-05
-4.04069783119e-12
7.46156627257e-05
1.58020408053e-12
7.4614675637e-05
6.92517029382e-12
7.46139121188e-05
1.30207880239e-11
7.46133376818e-05
1.94961330776e-11
7.46129170804e-05
2.62556475277e-11
7.46126175928e-05
3.33751902503e-11
7.46124107106e-05
4.10580892506e-11
7.46122727875e-05
4.94519026082e-11
7.46121858442e-05
5.84651221608e-11
7.46121342316e-05
6.78909847947e-11
7.461210473e-05
7.73413927576e-11
7.46120901398e-05
8.77460889357e-11
7.4612084502e-05
9.92215219452e-11
7.46120837823e-05
1.12001243307e-10
7.46120853401e-05
1.26276071934e-10
7.46120874884e-05
1.42117317107e-10
7.46120891928e-05
1.59487101596e-10
7.46120898483e-05
1.78220670333e-10
7.4612089089e-05
1.97983575594e-10
7.46120866403e-05
2.18236227657e-10
7.46120824043e-05
2.3832298192e-10
7.46120762998e-05
2.57182118161e-10
7.46120681331e-05
2.73253872949e-10
7.46120575133e-05
2.84415940074e-10
7.46120437263e-05
2.87863422003e-10
7.46120255315e-05
2.80001943285e-10
7.46120008957e-05
2.56441282361e-10
7.46119669591e-05
2.12167389194e-10
7.46119222361e-05
1.42423063496e-10
7.46118423963e-05
1.93041521949e-11
7.46116834434e-05
-2.27041106828e-10
7.46114406886e-05
-6.10949317452e-10
7.46110398059e-05
-1.13224676896e-09
7.46103806031e-05
-1.85518437406e-09
7.46092980359e-05
-2.84625992543e-09
7.46075251388e-05
-4.19857274277e-09
7.46046328981e-05
-6.03632115041e-09
7.45999312665e-05
-8.52034273996e-09
7.45922879436e-05
-1.18172590806e-08
7.45798697253e-05
-1.61382559962e-08
7.45597570754e-05
-2.17882693107e-08
7.45274510796e-05
-2.93488186447e-08
7.44757306507e-05
-3.90669017325e-08
7.43933037004e-05
-5.12164523129e-08
7.42628632211e-05
-6.59546325718e-08
7.40585458517e-05
-8.29891830749e-08
7.37431581396e-05
-1.01109369089e-07
7.32663274149e-05
-1.17489952263e-07
7.2566001824e-05
-1.26894884535e-07
7.15762312744e-05
-1.22091637439e-07
-9.44422381791e-08
7.02450887957e-05
5.07871724355e-05
-7.87117773345e-07
5.29516521866e-05