/*--------------------------------*- C++ -*----------------------------------*\
| =========                 |                                                 |
| \\      /  F ield         | OpenFOAM: The Open Source CFD Toolbox           |
|  \\    /   O peration     | Version:  2106                                  |
|   \\  /    A nd           | Website:  www.openfoam.com                      |
|    \\/     M anipulation  |                                                 |
\*---------------------------------------------------------------------------*/
FoamFile
{
    version     2.0;
    format      ascii;
    arch        "LSB;label=32;scalar=64";
    class       volVectorField;
    location    "0.19";
    object      U;
}
// * * * * * * * * * * * * * * * * * * * * * * * * * * * * * * * * * * * * * //

dimensions      [0 1 -1 0 0 0 0];

internalField   nonuniform List<vector> 
11200
(
(0.662462405307 0.150569442278 0)
(0.55894868038 0.103243388121 0)
(0.383850752115 0.0513512239755 0)
(0.283747617912 0.024870854971 0)
(0.232075301002 0.012417044856 0)
(0.201908626059 0.0066228163707 0)
(0.183197980542 0.00380291388174 0)
(0.171276543959 0.00231586948751 0)
(0.163510368713 0.00146450598889 0)
(0.158388838146 0.000944891920406 0)
(0.155006704536 0.000615176516056 0)
(0.152786753411 0.000402233572353 0)
(0.151346605891 0.00026423213972 0)
(0.150428370211 0.000175250231155 0)
(0.14985676608 0.000118360917247 0)
(0.149512563754 8.21604093083e-05 0)
(0.149315001145 5.88665628441e-05 0)
(0.149209636064 4.33166997018e-05 0)
(0.149159772904 3.29361362951e-05 0)
(0.149142527838 2.81875032992e-05 0)
(0.149144676309 2.76855572195e-05 0)
(0.149156943154 2.98911266916e-05 0)
(0.149172554559 3.30514910809e-05 0)
(0.149188090599 3.59670706921e-05 0)
(0.14920228686 3.86024990712e-05 0)
(0.149214543488 4.10414396199e-05 0)
(0.149224692908 4.33185633018e-05 0)
(0.149232842105 4.54650398554e-05 0)
(0.149239227915 4.75201469378e-05 0)
(0.149244132569 4.9530921125e-05 0)
(0.149247841371 5.15593962849e-05 0)
(0.14925062165 5.369678229e-05 0)
(0.149252670618 5.60253259906e-05 0)
(0.149254158814 5.84067713145e-05 0)
(0.149255218836 6.07680113567e-05 0)
(0.14925593726 6.30892836182e-05 0)
(0.149256410952 6.53808620674e-05 0)
(0.149256723502 6.76555985128e-05 0)
(0.149256928513 6.99250769556e-05 0)
(0.149257054972 7.21954391384e-05 0)
(0.149257123559 7.44677650266e-05 0)
(0.149257151275 7.67430516814e-05 0)
(0.149257150012 7.90210360722e-05 0)
(0.149257128308 8.13006320132e-05 0)
(0.149257092246 8.35801516555e-05 0)
(0.149257046391 8.58572853096e-05 0)
(0.149256994808 8.81292679478e-05 0)
(0.149256941677 9.03930477956e-05 0)
(0.149256891484 9.2645521157e-05 0)
(0.149256849483 9.48835045807e-05 0)
(0.149256822705 9.71038768151e-05 0)
(0.149256820621 9.93037066131e-05 0)
(0.149256855917 0.000101480022527 0)
(0.149256946004 0.000103629571574 0)
(0.149257115424 0.000105748334394 0)
(0.14925739943 0.000107830931677 0)
(0.149257847863 0.000109870678589 0)
(0.149258533647 0.000111858064676 0)
(0.149259565162 0.000113780084004 0)
(0.149261100063 0.000115612733122 0)
(0.149263379313 0.000117301946853 0)
(0.149266810769 0.000118759394158 0)
(0.149271873549 0.000120020954203 0)
(0.149279210216 0.000121274484546 0)
(0.149289848982 0.000122975074907 0)
(0.149305309909 0.00012533840682 0)
(0.149327976948 0.0001281217614 0)
(0.149361551729 0.000131092068759 0)
(0.149411637604 0.000134030175495 0)
(0.149486482168 0.000136821202768 0)
(0.149598050634 0.000140747235316 0)
(0.149769236655 0.000151649955442 0)
(0.150037894235 0.000172437553667 0)
(0.150467300181 0.00020277289244 0)
(0.151193477886 0.000232801546525 0)
(0.152494599612 0.000191963137409 0)
(0.155027844786 -0.000217525837207 0)
(0.162390490822 -0.00211641124657 0)
(0.187762244196 -0.0108216781004 0)
(0.204599550526 -0.0498457097208 0)
(0.965408256176 0.289214706289 0)
(0.961962866067 0.252656039286 0)
(0.823574403915 0.159021440627 0)
(0.698139385804 0.0959957299675 0)
(0.610225485527 0.0582481126986 0)
(0.548971517711 0.036214851578 0)
(0.506588918361 0.0231612834181 0)
(0.477567300997 0.0151375136112 0)
(0.457745525451 0.0100177535924 0)
(0.444228495325 0.00665813990265 0)
(0.435053333358 0.00441555539069 0)
(0.428873152311 0.00290686540584 0)
(0.424754234466 0.00189105841799 0)
(0.422046682019 0.00121004577388 0)
(0.420297841602 0.000757164283144 0)
(0.419193228616 0.000459257177461 0)
(0.418515619189 0.00026585657361 0)
(0.418116467842 0.000142401970219 0)
(0.417895859593 6.61125410596e-05 0)
(0.417786803888 2.30951707465e-05 0)
(0.417745384513 1.41052432722e-06 0)
(0.417742102587 -1.01597474699e-05 0)
(0.41775669626 -1.37111163533e-05 0)
(0.417778650742 -1.32646486797e-05 0)
(0.417802940751 -1.08326142102e-05 0)
(0.417826307039 -7.48982678663e-06 0)
(0.417847056338 -3.87378045877e-06 0)
(0.417864590075 -3.54496549642e-07 0)
(0.417878912291 2.86660704412e-06 0)
(0.417890338642 5.685633296e-06 0)
(0.417899341383 8.03809761544e-06 0)
(0.417906413417 9.83913614159e-06 0)
(0.417911756825 1.10076160547e-05 0)
(0.417915606278 1.1859934004e-05 0)
(0.417918339273 1.26818435612e-05 0)
(0.417920230804 1.34384187473e-05 0)
(0.417921523109 1.41119366243e-05 0)
(0.41792240731 1.47266661179e-05 0)
(0.417923009554 1.53116076381e-05 0)
(0.417923401092 1.5880461252e-05 0)
(0.417923634188 1.6433598396e-05 0)
(0.417923751836 1.6976166516e-05 0)
(0.417923784327 1.75118959677e-05 0)
(0.417923753817 1.80441828026e-05 0)
(0.417923676281 1.85762127505e-05 0)
(0.417923563735 1.91103927059e-05 0)
(0.41792342669 1.96487546059e-05 0)
(0.417923275797 2.01933593774e-05 0)
(0.417923122517 2.0746478366e-05 0)
(0.41792298036 2.13092519804e-05 0)
(0.417922867379 2.18819021759e-05 0)
(0.417922807909 2.24647321949e-05 0)
(0.417922834663 2.30578668494e-05 0)
(0.417922992506 2.36609519741e-05 0)
(0.417923344337 2.42729914134e-05 0)
(0.417923980636 2.48925344118e-05 0)
(0.417925030056 2.55183078859e-05 0)
(0.417926680675 2.61398770073e-05 0)
(0.417929207251 2.67377356665e-05 0)
(0.41793299787 2.72820555404e-05 0)
(0.417938638993 2.77293445644e-05 0)
(0.417947223195 2.80137631681e-05 0)
(0.417960254868 2.8291656505e-05 0)
(0.417979861484 2.78766921307e-05 0)
(0.418008832471 2.53458635376e-05 0)
(0.418050775302 1.95639477029e-05 0)
(0.418111847631 9.72816254887e-06 0)
(0.418202186132 -5.69031782204e-06 0)
(0.418337432061 -2.92217862412e-05 0)
(0.41854254956 -6.4561329795e-05 0)
(0.418859559978 -0.000115922101975 0)
(0.419358270939 -0.00018830585266 0)
(0.420152512404 -0.000308510426452 0)
(0.421446609913 -0.000534279129775 0)
(0.423633484104 -0.00100283381595 0)
(0.427434436922 -0.00209702735021 0)
(0.434277150399 -0.00487199949522 0)
(0.448349002407 -0.0122949777213 0)
(0.474830379118 -0.0343588257188 0)
(0.478562827351 -0.0991482713277 0)
(1.0222209672 0.238416186693 0)
(1.08213753616 0.295926651495 0)
(1.03447723834 0.239503064535 0)
(0.954615425998 0.174290161986 0)
(0.87999207726 0.121345465533 0)
(0.818614461783 0.083099381016 0)
(0.771410881013 0.0567316639651 0)
(0.736634425109 0.0387409655064 0)
(0.711624470788 0.0264327842848 0)
(0.693916662465 0.0179731024417 0)
(0.681541455767 0.0121424462781 0)
(0.673000165658 0.00812490720964 0)
(0.667180702017 0.00536632078103 0)
(0.663271732458 0.00348444523747 0)
(0.660688560636 0.00221256273398 0)
(0.659014234801 0.00136338374017 0)
(0.657954551633 0.000805246342489 0)
(0.657304255895 0.000445919652603 0)
(0.656921834014 0.000221071764373 0)
(0.656710264908 8.55846981755e-05 0)
(0.656603397031 8.36146285722e-06 0)
(0.656561844062 -3.37156613853e-05 0)
(0.656557939016 -5.68498521917e-05 0)
(0.656571409816 -6.68691538982e-05 0)
(0.656592934186 -6.84770130532e-05 0)
(0.656616748553 -6.55561692326e-05 0)
(0.656639545731 -6.0545882646e-05 0)
(0.656659719028 -5.48567625565e-05 0)
(0.656676683375 -4.92732427495e-05 0)
(0.656690416746 -4.42023055618e-05 0)
(0.656701165495 -3.98389916121e-05 0)
(0.656709314626 -3.63022180012e-05 0)
(0.656715560314 -3.36969414035e-05 0)
(0.656720592402 -3.18591801383e-05 0)
(0.656724454234 -3.08138638554e-05 0)
(0.656727161047 -3.03076361823e-05 0)
(0.656729024801 -3.02524471412e-05 0)
(0.656730324583 -3.05635892019e-05 0)
(0.656731227598 -3.10913663191e-05 0)
(0.656731823253 -3.17530934115e-05 0)
(0.656732185289 -3.25193231909e-05 0)
(0.65673237861 -3.33548873038e-05 0)
(0.656732447966 -3.42352216703e-05 0)
(0.656732427036 -3.51410614208e-05 0)
(0.656732340249 -3.60570189033e-05 0)
(0.656732206035 -3.69724229542e-05 0)
(0.656732040609 -3.78798515104e-05 0)
(0.656731860081 -3.87737867758e-05 0)
(0.656731680415 -3.96487704323e-05 0)
(0.656731519469 -4.05006956234e-05 0)
(0.656731402172 -4.13250049512e-05 0)
(0.656731363224 -4.21173125961e-05 0)
(0.656731449827 -4.2875477477e-05 0)
(0.656731727596 -4.36015894062e-05 0)
(0.656732289879 -4.43068065807e-05 0)
(0.656733271681 -4.50200156471e-05 0)
(0.656734858939 -4.57929508199e-05 0)
(0.656737319792 -4.67190505073e-05 0)
(0.65674105749 -4.79297241321e-05 0)
(0.656746670882 -4.9634254734e-05 0)
(0.656755063415 -5.23157116545e-05 0)
(0.656767874459 -5.70550132222e-05 0)
(0.656786501789 -6.46010581156e-05 0)
(0.656812371509 -7.58679752362e-05 0)
(0.656849222127 -9.2513957405e-05 0)
(0.656903769868 -0.000116973156833 0)
(0.65698545404 -0.00015244987254 0)
(0.657108091135 -0.000204244209475 0)
(0.657293544866 -0.000280911031447 0)
(0.657577309848 -0.000396389136111 0)
(0.658017705481 -0.000575138870924 0)
(0.65870425962 -0.000864616193074 0)
(0.659784622831 -0.00135524243003 0)
(0.661517423965 -0.00222079885165 0)
(0.664346821413 -0.00382519917195 0)
(0.668972269099 -0.00697032266499 0)
(0.676426364504 -0.0134021942188 0)
(0.688728602788 -0.0269498892919 0)
(0.705457176191 -0.0565581672342 0)
(0.700868227606 -0.11363688654 0)
(1.02251475626 0.17080715242 0)
(1.10138976322 0.276496477597 0)
(1.11752427195 0.266664797298 0)
(1.0921466204 0.219901696215 0)
(1.05187817464 0.168168844224 0)
(1.0102082461 0.123567392835 0)
(0.973494714861 0.0888375175132 0)
(0.94386458186 0.0630063675898 0)
(0.921142826788 0.044223200467 0)
(0.904284100921 0.0307423896849 0)
(0.892074897716 0.0211562918077 0)
(0.883404539975 0.0143954671021 0)
(0.87735269998 0.00966794774595 0)
(0.873197736605 0.00639383771577 0)
(0.870392958813 0.00415116627496 0)
(0.868534068415 0.0026344931613 0)
(0.867327669372 0.00162402025936 0)
(0.866564263636 0.000962679300254 0)
(0.866096503304 0.000539125945653 0)
(0.865822257983 0.000275157342901 0)
(0.865671411221 0.000117072203738 0)
(0.865595157742 2.87960767952e-05 0)
(0.865564096511 -1.93213267777e-05 0)
(0.865561285021 -4.12581972751e-05 0)
(0.865572625598 -4.7663145571e-05 0)
(0.865589628618 -4.55235923603e-05 0)
(0.865607935128 -3.91552600683e-05 0)
(0.865625271297 -3.11455666609e-05 0)
(0.86564055343 -2.29655686369e-05 0)
(0.865653414612 -1.53828461788e-05 0)
(0.865663886515 -8.72599629981e-06 0)
(0.865672173019 -3.04735664509e-06 0)
(0.865678526576 1.73090457648e-06 0)
(0.865683154687 5.46185740511e-06 0)
(0.865686475823 8.02861420592e-06 0)
(0.865688877238 9.78553629874e-06 0)
(0.86569051251 1.11385330335e-05 0)
(0.865691677546 1.22827636575e-05 0)
(0.865692548383 1.32508801561e-05 0)
(0.865693143049 1.41371980866e-05 0)
(0.865693509048 1.49328500466e-05 0)
(0.865693710518 1.56606040324e-05 0)
(0.865693785909 1.63360445057e-05 0)
(0.865693766384 1.69756541613e-05 0)
(0.865693673913 1.7594092777e-05 0)
(0.865693524482 1.82015800909e-05 0)
(0.865693333184 1.88060626446e-05 0)
(0.865693117246 1.94156048448e-05 0)
(0.865692895426 2.00420916673e-05 0)
(0.865692690401 2.06842398835e-05 0)
(0.865692533349 2.13313717603e-05 0)
(0.865692464299 2.19728271175e-05 0)
(0.865692535513 2.25931152541e-05 0)
(0.865692816166 2.3166980786e-05 0)
(0.865693397439 2.36558706987e-05 0)
(0.865694408914 2.40133981316e-05 0)
(0.86569602995 2.42082829916e-05 0)
(0.865698535355 2.41384241338e-05 0)
(0.865702330805 2.3637751166e-05 0)
(0.865707855691 2.23203985307e-05 0)
(0.865715481576 1.9581772067e-05 0)
(0.865726847597 1.48142905625e-05 0)
(0.865744583738 6.16843377406e-06 0)
(0.86577162846 -8.05100642997e-06 0)
(0.86581188693 -2.98378170772e-05 0)
(0.865871255237 -6.3110244018e-05 0)
(0.86595906653 -0.000114768743486 0)
(0.866089847466 -0.000195619134168 0)
(0.866286192628 -0.000322993762864 0)
(0.866583018443 -0.000525492485135 0)
(0.867034121365 -0.000852276786593 0)
(0.867724908609 -0.00139064509161 0)
(0.868792334978 -0.0022900311711 0)
(0.87045073814 -0.00382626458502 0)
(0.873020897204 -0.00652598727005 0)
(0.876904907681 -0.0114034195092 0)
(0.882430301064 -0.0203375730658 0)
(0.889787138386 -0.0366195465898 0)
(0.896536718694 -0.0658216036858 0)
(0.886797634976 -0.110689578446 0)
(1.0128787524 0.118961023959 0)
(1.08820671263 0.231806936742 0)
(1.1374136797 0.253106763571 0)
(1.1540908787 0.228992751685 0)
(1.14994212273 0.188368356359 0)
(1.13538467059 0.146579841024 0)
(1.11758896571 0.110150962423 0)
(1.10059502132 0.0808162187574 0)
(1.086124592 0.0582265732274 0)
(1.07459094662 0.0413189822558 0)
(1.0657914899 0.0289160181459 0)
(1.05928801286 0.019960098744 0)
(1.05459978793 0.0135815598361 0)
(1.05129078944 0.00909744391399 0)
(1.04899987075 0.00598615571947 0)
(1.04744342621 0.00385696913955 0)
(1.04640655101 0.00242160149847 0)
(1.04573063365 0.00147015435854 0)
(1.04530107588 0.000851706628892 0)
(1.04503657612 0.000459021313857 0)
(1.04488021089 0.000216761876024 0)
(1.04479259191 7.30224593909e-05 0)
(1.04474872409 -5.50009487546e-06 0)
(1.04473182207 -4.4005162244e-05 0)
(1.0447295686 -5.93834146307e-05 0)
(1.04473504975 -6.17184014694e-05 0)
(1.04474399479 -5.72462671129e-05 0)
(1.04475387588 -4.98058406113e-05 0)
(1.0447633135 -4.16481105272e-05 0)
(1.04477163767 -3.39939571613e-05 0)
(1.04477859814 -2.74296063487e-05 0)
(1.04478418249 -2.21584403195e-05 0)
(1.04478853684 -1.81357270975e-05 0)
(1.04479187221 -1.51476050895e-05 0)
(1.04479444332 -1.281678806e-05 0)
(1.04479654327 -1.10213537104e-05 0)
(1.04479828348 -9.53378934219e-06 0)
(1.04479960945 -8.24500606512e-06 0)
(1.04480059124 -7.22560881944e-06 0)
(1.04480127929 -6.55545583539e-06 0)
(1.04480169436 -6.17441132613e-06 0)
(1.04480192303 -5.96376756649e-06 0)
(1.04480201053 -5.87321542374e-06 0)
(1.04480199515 -5.85258907042e-06 0)
(1.04480190154 -5.86158913788e-06 0)
(1.04480174768 -5.8806327732e-06 0)
(1.0448015526 -5.90060043303e-06 0)
(1.04480134024 -5.91952609371e-06 0)
(1.04480112406 -5.9464570262e-06 0)
(1.04480090985 -5.9778963918e-06 0)
(1.04480072316 -6.00172732194e-06 0)
(1.04480060577 -6.01818342223e-06 0)
(1.0448006089 -6.03398498082e-06 0)
(1.04480080194 -6.06314079728e-06 0)
(1.04480129305 -6.13718077684e-06 0)
(1.04480226971 -6.3430655345e-06 0)
(1.04480393818 -6.92262777281e-06 0)
(1.04480655532 -8.18800276271e-06 0)
(1.04481043538 -1.0606812447e-05 0)
(1.04481603111 -1.43936008662e-05 0)
(1.04482437656 -1.93660522887e-05 0)
(1.0448366293 -2.55171696218e-05 0)
(1.04485399672 -3.51834901728e-05 0)
(1.04487879235 -5.13388573776e-05 0)
(1.04491448897 -7.8239412433e-05 0)
(1.04496622493 -0.000122161000383 0)
(1.04504160233 -0.000192913194428 0)
(1.04515197317 -0.000306128654498 0)
(1.04531450104 -0.000487072203705 0)
(1.04555510331 -0.000776946366859 0)
(1.04591259257 -0.0012433801627 0)
(1.04644505733 -0.00199852277981 0)
(1.04723701919 -0.00323385382763 0)
(1.04840215563 -0.0052818483553 0)
(1.05006899337 -0.00872243044518 0)
(1.05229602852 -0.0145550442405 0)
(1.05484158777 -0.0243973283897 0)
(1.05691785413 -0.0405784954807 0)
(1.05581651452 -0.0659708614204 0)
(1.04222097316 -0.100127420512 0)
(1.00447483585 0.0814039986513 0)
(1.06917237738 0.181288539595 0)
(1.13080569435 0.2169504185 0)
(1.17375001412 0.210789154333 0)
(1.19865266488 0.183690074798 0)
(1.21019989567 0.149751680564 0)
(1.21350257554 0.116779140837 0)
(1.21251726066 0.0882206743432 0)
(1.20973100501 0.0650481473859 0)
(1.2065112198 0.0470209056296 0)
(1.20351915794 0.0334068058141 0)
(1.20101147769 0.0233557305989 0)
(1.19903447751 0.0160720128495 0)
(1.19753880566 0.0108795137835 0)
(1.1964413401 0.00723418921838 0)
(1.19565560985 0.00471352070917 0)
(1.19510491221 0.00299763230263 0)
(1.19472649717 0.00184916490083 0)
(1.19447151394 0.00109496508025 0)
(1.19430320125 0.000610616377405 0)
(1.19419455943 0.000307991623892 0)
(1.19412627203 0.000125773247578 0)
(1.19408521922 2.22272445617e-05 0)
(1.19406195701 -3.24488761355e-05 0)
(1.19404965285 -5.72689337831e-05 0)
(1.1940441499 -6.45962379318e-05 0)
(1.19404264741 -6.23760467038e-05 0)
(1.194043327 -5.55231684494e-05 0)
(1.19404507314 -4.69478843514e-05 0)
(1.19404722774 -3.82635596082e-05 0)
(1.19404941853 -3.02712233278e-05 0)
(1.19405145361 -2.32758826085e-05 0)
(1.19405326395 -1.73011980802e-05 0)
(1.19405484398 -1.22735276704e-05 0)
(1.19405621012 -8.08632158818e-06 0)
(1.19405738162 -4.68537699757e-06 0)
(1.19405833096 -2.07400203488e-06 0)
(1.19405900489 -1.83497330423e-07 0)
(1.1940593622 1.13576066005e-06 0)
(1.19405947695 1.99299110826e-06 0)
(1.19405953031 2.67325716367e-06 0)
(1.19405955877 3.27957046612e-06 0)
(1.19405953638 3.81214592391e-06 0)
(1.19405947998 4.27930598235e-06 0)
(1.19405938426 4.69255148186e-06 0)
(1.19405923956 5.06846948008e-06 0)
(1.19405904714 5.41845419319e-06 0)
(1.19405881073 5.74332824614e-06 0)
(1.19405855175 6.02930414967e-06 0)
(1.19405831246 6.27910206237e-06 0)
(1.19405812539 6.51224509849e-06 0)
(1.19405802142 6.71923786268e-06 0)
(1.19405805037 6.87379004194e-06 0)
(1.1940582743 6.93595581306e-06 0)
(1.19405874481 6.84852284977e-06 0)
(1.19405944993 6.52901571495e-06 0)
(1.19406042378 5.82243706511e-06 0)
(1.1940618088 4.40955325337e-06 0)
(1.19406416041 1.75326029281e-06 0)
(1.19406855719 -2.35934521532e-06 0)
(1.19407572373 -8.6912246255e-06 0)
(1.19408551972 -1.86744386645e-05 0)
(1.19409861064 -3.42980088224e-05 0)
(1.19411697453 -5.84676730171e-05 0)
(1.19414274127 -9.57748927961e-05 0)
(1.19417871139 -0.000153551278317 0)
(1.19422885787 -0.000243483916501 0)
(1.19429879383 -0.000384111521145 0)
(1.19439637661 -0.000605011852711 0)
(1.19453236553 -0.000953737437637 0)
(1.19472083939 -0.0015071817733 0)
(1.19497861394 -0.00239019951689 0)
(1.19532055933 -0.00380711525333 0)
(1.19574408512 -0.00609278542309 0)
(1.19618906958 -0.00978938924074 0)
(1.1964358576 -0.0157465506694 0)
(1.19589698994 -0.0251851720094 0)
(1.19341510711 -0.03957749207 0)
(1.18664638532 -0.060192002923 0)
(1.17004940264 -0.0857527059569 0)
(0.998962326768 0.0544316269924 0)
(1.05310957229 0.133401609103 0)
(1.11628268923 0.170777558842 0)
(1.17301272913 0.175143871663 0)
(1.2179124747 0.159583605036 0)
(1.2504985936 0.134951018047 0)
(1.27288492825 0.10841165425 0)
(1.28776724003 0.0838849689731 0)
(1.29745270039 0.0630565695249 0)
(1.30366077234 0.0462999188696 0)
(1.30759236673 0.033320512889 0)
(1.31005372563 0.0235495228855 0)
(1.31157365033 0.0163599075558 0)
(1.31249495344 0.0111713159144 0)
(1.31303864651 0.00749150841837 0)
(1.31334673791 0.00492448845418 0)
(1.3135101514 0.00316295841837 0)
(1.31358678078 0.00197475545359 0)
(1.31361315651 0.00118820062154 0)
(1.31361200641 0.000678632908091 0)
(1.31359716824 0.000357011720487 0)
(1.31357684653 0.000160756783482 0)
(1.3135558515 4.64711486103e-05 0)
(1.31353655508 -1.5868411944e-05 0)
(1.31351989588 -4.60583652371e-05 0)
(1.31350620567 -5.70699335871e-05 0)
(1.31349529938 -5.73262580267e-05 0)
(1.31348683993 -5.20893713785e-05 0)
(1.31348043919 -4.45285614502e-05 0)
(1.3134757121 -3.64681166741e-05 0)
(1.31347230769 -2.88810434312e-05 0)
(1.31346992307 -2.22208030222e-05 0)
(1.3134682989 -1.66388412177e-05 0)
(1.31346720711 -1.21424935302e-05 0)
(1.31346648232 -8.66592171456e-06 0)
(1.31346602707 -6.10764674678e-06 0)
(1.31346574018 -4.33069324391e-06 0)
(1.31346553175 -3.12808964001e-06 0)
(1.31346539811 -2.27042817267e-06 0)
(1.31346542566 -1.55269577162e-06 0)
(1.31346557774 -9.74398890192e-07 0)
(1.31346567524 -5.57364587511e-07 0)
(1.31346566582 -1.91513884229e-07 0)
(1.31346558104 1.52297825386e-07 0)
(1.31346544276 4.72179680076e-07 0)
(1.3134652635 7.77016992785e-07 0)
(1.31346504643 1.07942754299e-06 0)
(1.31346479357 1.3923274298e-06 0)
(1.31346451955 1.73088693459e-06 0)
(1.31346425724 2.08331293502e-06 0)
(1.31346402279 2.40453848574e-06 0)
(1.31346382347 2.66063179013e-06 0)
(1.31346368937 2.80908327949e-06 0)
(1.31346366992 2.78682073365e-06 0)
(1.31346384586 2.50542707086e-06 0)
(1.31346433628 1.86233545043e-06 0)
(1.31346517413 7.88488623295e-07 0)
(1.31346632565 -8.89886302326e-07 0)
(1.31346822523 -3.30452587854e-06 0)
(1.31347118425 -7.16051946982e-06 0)
(1.31347532144 -1.37901838854e-05 0)
(1.31348087707 -2.48115584855e-05 0)
(1.31348810359 -4.18031110707e-05 0)
(1.31349747125 -6.79173905206e-05 0)
(1.31350928179 -0.000108187141006 0)
(1.31352358424 -0.000170373445915 0)
(1.31353996868 -0.000266601789807 0)
(1.31355707939 -0.000415867510243 0)
(1.31357164127 -0.000648096165968 0)
(1.31357663717 -0.00101072587306 0)
(1.31355794309 -0.00157915063956 0)
(1.31348794111 -0.00247289257779 0)
(1.31331203408 -0.00388025446202 0)
(1.31292216332 -0.00609540717312 0)
(1.31210750719 -0.00956585075105 0)
(1.31046113747 -0.0149381540002 0)
(1.30722660155 -0.0230487955481 0)
(1.30118819017 -0.0347509359718 0)
(1.29046606041 -0.0505002621423 0)
(1.2715648034 -0.0690927230119 0)
(0.995736075303 0.0346338619615 0)
(1.04179514842 0.0905689231984 0)
(1.10222839628 0.121549566278 0)
(1.16491412953 0.12960583449 0)
(1.22202568021 0.122009267965 0)
(1.26951894069 0.106019937183 0)
(1.3068022614 0.0870975542904 0)
(1.33499538024 0.0686366791241 0)
(1.35574480435 0.0523698370837 0)
(1.37069620029 0.0389256162395 0)
(1.38128279051 0.0282980721046 0)
(1.38866271421 0.0201712764797 0)
(1.39373037176 0.0141175104439 0)
(1.39715664647 0.00970533685916 0)
(1.39943438818 0.00655059692727 0)
(1.40091970982 0.00433445707563 0)
(1.40186625564 0.00280414796047 0)
(1.40245227557 0.00176574660339 0)
(1.40280137255 0.00107419884628 0)
(1.40299806876 0.000623238708173 0)
(1.40309928939 0.0003364125679 0)
(1.40314274207 0.000159625851799 0)
(1.40315300187 5.51659920814e-05 0)
(1.40314551181 -2.99756842395e-06 0)
(1.40312975095 -3.21230840941e-05 0)
(1.40311134724 -4.38918872598e-05 0)
(1.40309330743 -4.57634660209e-05 0)
(1.40307715607 -4.24228219396e-05 0)
(1.40306349481 -3.67334238591e-05 0)
(1.40305239745 -3.03717861364e-05 0)
(1.40304366226 -2.42525542223e-05 0)
(1.40303696403 -1.88228667928e-05 0)
(1.40303194171 -1.42511851639e-05 0)
(1.40302824554 -1.05396917616e-05 0)
(1.40302557766 -7.58781728586e-06 0)
(1.40302370576 -5.27077791357e-06 0)
(1.40302245308 -3.46574596035e-06 0)
(1.4030216691 -2.02914198546e-06 0)
(1.40302118856 -8.55815079525e-07 0)
(1.40302081617 7.88264159442e-08 0)
(1.40302048355 7.91957191796e-07 0)
(1.40302027275 1.28580477605e-06 0)
(1.40302017101 1.66253598681e-06 0)
(1.40302008587 1.98854760697e-06 0)
(1.40301998281 2.30171899275e-06 0)
(1.403019855 2.62046650211e-06 0)
(1.40301970113 2.95452948844e-06 0)
(1.40301952313 3.30932785782e-06 0)
(1.40301932046 3.68703016044e-06 0)
(1.40301908569 4.07316009526e-06 0)
(1.40301883189 4.42848135791e-06 0)
(1.40301859149 4.72401584684e-06 0)
(1.40301839078 4.92259601447e-06 0)
(1.40301825549 4.96787415078e-06 0)
(1.40301820692 4.77407956432e-06 0)
(1.40301824926 4.2025172888e-06 0)
(1.40301835732 3.04681121147e-06 0)
(1.40301861337 1.16460974856e-06 0)
(1.40301914168 -1.7149004938e-06 0)
(1.40302004354 -6.49671513205e-06 0)
(1.40302131843 -1.39471050743e-05 0)
(1.4030226105 -2.53783301407e-05 0)
(1.40302339898 -4.26273394845e-05 0)
(1.40302291548 -6.86645431527e-05 0)
(1.40301964526 -0.000108074430467 0)
(1.40301079899 -0.000167892109028 0)
(1.40299153656 -0.000259039769113 0)
(1.4029536068 -0.000398381190965 0)
(1.40288291421 -0.000612052112195 0)
(1.40275551874 -0.00094084681322 0)
(1.40253125279 -0.00144847840895 0)
(1.4021433583 -0.0022336067123 0)
(1.40147943405 -0.00344620314515 0)
(1.40035001884 -0.00531149697641 0)
(1.39844001779 -0.00815470640372 0)
(1.39523318928 -0.0124145570264 0)
(1.38991120361 -0.0186081918138 0)
(1.38131713802 -0.027182551062 0)
(1.3679402278 -0.0382319339538 0)
(1.34736412884 -0.0508787470756 0)
(0.994011532507 0.0192358085504 0)
(1.03484764043 0.0523338425903 0)
(1.09199263556 0.0723631290081 0)
(1.15662421195 0.079129232723 0)
(1.22032117915 0.0761045462184 0)
(1.2770194721 0.0673339706861 0)
(1.32424421194 0.056150902271 0)
(1.36181576232 0.04479900957 0)
(1.3906853374 0.0345303762405 0)
(1.41226078216 0.0258814314113 0)
(1.42801825568 0.0189465234201 0)
(1.43929887603 0.0135849821 0)
(1.44722810994 0.00955653493442 0)
(1.45270416596 0.00660011673385 0)
(1.45641899108 0.00447419223359 0)
(1.45889147691 0.0029735161152 0)
(1.46050234184 0.00193277191723 0)
(1.46152573891 0.00122369748648 0)
(1.46215575488 0.000749554512025 0)
(1.46252757977 0.000439021725673 0)
(1.46273385685 0.000240524842089 0)
(1.46283699931 0.000117415064693 0)
(1.46287830112 4.40517047775e-05 0)
(1.46288453917 2.69203556977e-06 0)
(1.46287241316 -1.8444159005e-05 0)
(1.46285205934 -2.74391223776e-05 0)
(1.46282950487 -2.94400722784e-05 0)
(1.46280796247 -2.76910333661e-05 0)
(1.46278896012 -2.41900941147e-05 0)
(1.46277304229 -2.01178254751e-05 0)
(1.4627602001 -1.61231421578e-05 0)
(1.46275013938 -1.25289118482e-05 0)
(1.46274244974 -9.46177033428e-06 0)
(1.46273669915 -6.93263595804e-06 0)
(1.46273248906 -4.88779145812e-06 0)
(1.46272947722 -3.25787392929e-06 0)
(1.4627273753 -1.97964519728e-06 0)
(1.46272592624 -1.0116932299e-06 0)
(1.46272491847 -3.08707911313e-07 0)
(1.46272428713 2.16373549683e-07 0)
(1.46272391838 7.02009862242e-07 0)
(1.46272366296 1.18373023954e-06 0)
(1.46272348852 1.61547393974e-06 0)
(1.46272335551 2.00430498917e-06 0)
(1.46272323459 2.37161140794e-06 0)
(1.4627231069 2.73110288263e-06 0)
(1.46272295916 3.08855336508e-06 0)
(1.46272278294 3.44233887827e-06 0)
(1.46272257364 3.78374437194e-06 0)
(1.46272232844 4.10276738865e-06 0)
(1.46272205002 4.39232738848e-06 0)
(1.46272174503 4.62126519928e-06 0)
(1.46272141896 4.74015454743e-06 0)
(1.46272107927 4.68075926297e-06 0)
(1.46272073709 4.35285444343e-06 0)
(1.4627204102 3.64387871504e-06 0)
(1.46272011873 2.43227937863e-06 0)
(1.46271975498 6.38108644448e-07 0)
(1.46271910422 -2.06665765368e-06 0)
(1.46271804253 -6.41710690113e-06 0)
(1.46271632373 -1.32190444765e-05 0)
(1.46271326519 -2.35825389769e-05 0)
(1.46270772783 -3.90382960445e-05 0)
(1.46269788071 -6.19525419297e-05 0)
(1.46268063079 -9.59095185838e-05 0)
(1.46265076253 -0.00014628940791 0)
(1.46259974888 -0.000221339231729 0)
(1.46251376583 -0.000333427738027 0)
(1.46237011364 -0.000501184578271 0)
(1.46213159282 -0.0007531766867 0)
(1.46173813853 -0.00113364463626 0)
(1.46109457601 -0.00170977125907 0)
(1.46004847476 -0.00257808729155 0)
(1.45835730321 -0.00387916474081 0)
(1.45564461792 -0.00580686178748 0)
(1.45134085514 -0.00860668835971 0)
(1.44461894447 -0.0125425152096 0)
(1.43439934224 -0.0178001904434 0)
(1.41940631744 -0.0243351236173 0)
(1.39776916678 -0.0316094998072 0)
(0.993269668485 0.00617015276862 0)
(1.03158100446 0.0171020484601 0)
(1.08672182662 0.0239906505657 0)
(1.15174555649 0.0265606671119 0)
(1.21823537837 0.0258180595278 0)
(1.27925776036 0.02304888623 0)
(1.33140138185 0.0193656311757 0)
(1.37377601268 0.0155468575174 0)
(1.40691056232 0.0120449298295 0)
(1.43203316524 0.00906639959733 0)
(1.45060218183 0.00666059501785 0)
(1.46402989183 0.00479009227395 0)
(1.47355019506 0.00337842977436 0)
(1.48017566875 0.0023387403474 0)
(1.4847023232 0.00158891697336 0)
(1.48773624061 0.00105829265908 0)
(1.48972737937 0.000689467090811 0)
(1.49100281055 0.000437643132485 0)
(1.4917958918 0.00026889066952 0)
(1.49227026359 0.000158115999584 0)
(1.49253875664 8.71292813499e-05 0)
(1.49267783404 4.2979025242e-05 0)
(1.49273836809 1.65883987269e-05 0)
(1.49275354213 1.66708342605e-06 0)
(1.49274430462 -6.06654570859e-06 0)
(1.49272351496 -9.41252419675e-06 0)
(1.49269886823 -1.02192465504e-05 0)
(1.49267459209 -9.65624655866e-06 0)
(1.49265278451 -8.44186124571e-06 0)
(1.49263428703 -6.99495970451e-06 0)
(1.49261922183 -5.55545220749e-06 0)
(1.49260732708 -4.24328424707e-06 0)
(1.49259817352 -3.1059444134e-06 0)
(1.49259128583 -2.14967494598e-06 0)
(1.49258621017 -1.35834053661e-06 0)
(1.49258254646 -7.1013912823e-07 0)
(1.49257995898 -1.83551589458e-07 0)
(1.49257817802 2.43500175278e-07 0)
(1.49257699711 6.17593586267e-07 0)
(1.49257623874 9.89879651668e-07 0)
(1.4925757496 1.29915086211e-06 0)
(1.49257543725 1.58929451149e-06 0)
(1.49257524422 1.87770711893e-06 0)
(1.49257511797 2.17490366659e-06 0)
(1.49257501951 2.4884230792e-06 0)
(1.49257492281 2.82144312159e-06 0)
(1.49257480957 3.17378896499e-06 0)
(1.49257466661 3.54194932423e-06 0)
(1.49257448374 3.91801613603e-06 0)
(1.49257425218 4.28875592271e-06 0)
(1.49257396581 4.63516440033e-06 0)
(1.49257362011 4.92615995112e-06 0)
(1.49257320802 5.11845142324e-06 0)
(1.49257271802 5.15287851321e-06 0)
(1.49257212999 4.94837546415e-06 0)
(1.49257141479 4.39333249414e-06 0)
(1.4925705595 3.33627880866e-06 0)
(1.49256945081 1.60632828664e-06 0)
(1.49256763526 -9.54261779971e-07 0)
(1.49256478333 -4.76700371115e-06 0)
(1.49256053307 -1.05692646245e-05 0)
(1.49255386304 -1.91110559059e-05 0)
(1.49254313922 -3.1435948145e-05 0)
(1.49252579674 -4.90773322788e-05 0)
(1.49249769657 -7.41915260943e-05 0)
(1.49245202489 -0.00010974278613 0)
(1.49237794311 -0.000160232426126 0)
(1.4922583585 -0.000231870751672 0)
(1.49206555263 -0.000333161586008 0)
(1.49175430821 -0.00047695697971 0)
(1.49125269485 -0.000684493842219 0)
(1.49045136319 -0.000987023533595 0)
(1.48917887914 -0.00141783841106 0)
(1.48716775736 -0.0020250838674 0)
(1.48401675034 -0.00287050338187 0)
(1.47914130524 -0.00402218837716 0)
(1.47172712691 -0.00553544099 0)
(1.46074931861 -0.00741333006834 0)
(1.44504350433 -0.00956394155119 0)
(1.4229746657 -0.0117410599365 0)
(0.993270466283 -0.00616839942755 0)
(1.03158098704 -0.0171003735043 0)
(1.08672176026 -0.023989759725 0)
(1.15174559413 -0.0265602455904 0)
(1.21823545615 -0.0258179923674 0)
(1.27925786226 -0.0230491098967 0)
(1.33140150784 -0.0193660472071 0)