/*--------------------------------*- C++ -*----------------------------------*\
| =========                 |                                                 |
| \\      /  F ield         | OpenFOAM: The Open Source CFD Toolbox           |
|  \\    /   O peration     | Version:  2106                                  |
|   \\  /    A nd           | Website:  www.openfoam.com                      |
|    \\/     M anipulation  |                                                 |
\*---------------------------------------------------------------------------*/
FoamFile
{
    version     2.0;
    format      ascii;
    arch        "LSB;label=32;scalar=64";
    class       volVectorField;
    location    "0.36";
    object      U;
}
// * * * * * * * * * * * * * * * * * * * * * * * * * * * * * * * * * * * * * //

dimensions      [0 1 -1 0 0 0 0];

internalField   nonuniform List<vector> 
11200
(
(0.662462406194 0.150569441377 0)
(0.558948684318 0.103243386934 0)
(0.383850760199 0.0513512225235 0)
(0.283747630325 0.0248708533795 0)
(0.232075317766 0.0124170432315 0)
(0.20190864724 0.00662281475584 0)
(0.183198006263 0.00380291229625 0)
(0.17127657439 0.00231586792436 0)
(0.163510404099 0.00146450441146 0)
(0.158388878848 0.000944890276238 0)
(0.155006751055 0.00061517475021 0)
(0.1527868064 0.00040223164485 0)
(0.151346666133 0.000264230021056 0)
(0.150428438573 0.000175247894399 0)
(0.149856843462 0.000118358327403 0)
(0.149512651026 8.21574964034e-05 0)
(0.149315099092 5.88631965832e-05 0)
(0.149209745295 4.33126783267e-05 0)
(0.149159893186 3.29313559606e-05 0)
(0.149142659736 2.81834613548e-05 0)
(0.149144820905 2.76816241689e-05 0)
(0.149157100395 2.98878095573e-05 0)
(0.14917272454 3.30484314919e-05 0)
(0.149188273735 3.59641264849e-05 0)
(0.149202483559 3.85997273336e-05 0)
(0.149214754085 4.10389074119e-05 0)
(0.149224917628 4.33163054876e-05 0)
(0.149233081027 4.54630563034e-05 0)
(0.14923948092 4.75184032015e-05 0)
(0.149244399255 4.95293391825e-05 0)
(0.149248121018 5.15577676941e-05 0)
(0.149250913666 5.36946352031e-05 0)
(0.149252974212 5.60230600667e-05 0)
(0.149254472773 5.84045214938e-05 0)
(0.149255542041 6.07657253175e-05 0)
(0.149256268558 6.3087024772e-05 0)
(0.14925674906 6.53786592112e-05 0)
(0.149257067189 6.76534818068e-05 0)
(0.149257276733 6.99231031528e-05 0)
(0.149257406918 7.21936805016e-05 0)
(0.149257478723 7.44663049111e-05 0)
(0.149257509474 7.67419524321e-05 0)
(0.149257511364 7.90203296181e-05 0)
(0.149257493189 8.13002908361e-05 0)
(0.149257461217 8.35801146308e-05 0)
(0.149257420095 8.58574754876e-05 0)
(0.149257373821 8.81296155696e-05 0)
(0.149257326441 9.03934858657e-05 0)
(0.149257282529 9.26459175135e-05 0)
(0.149257247212 9.48839329848e-05 0)
(0.149257227294 9.71043700032e-05 0)
(0.149257232533 9.93043096404e-05 0)
(0.149257276267 0.000101480762222 0)
(0.149257376878 0.000103630280313 0)
(0.149257560184 0.000105748497411 0)
(0.149257862468 0.000107829831398 0)
(0.149258334989 0.000109867082917 0)
(0.149259053314 0.000111850387081 0)
(0.149260126973 0.000113767203688 0)
(0.149261714087 0.00011559258742 0)
(0.149264062708 0.000117270335701 0)
(0.149267580744 0.000118717737022 0)
(0.14927273519 0.000119975173603 0)
(0.149280174268 0.000121236245652 0)
(0.149290931343 0.000122964745229 0)
(0.149306527777 0.000125338921127 0)
(0.14932935093 0.000128119181159 0)
(0.149363095908 0.000131079778608 0)
(0.149413355317 0.000134005761547 0)
(0.149488358651 0.000136783960936 0)
(0.149600041937 0.000140692278051 0)
(0.1497712412 0.00015155526151 0)
(0.150039719443 0.000172278943189 0)
(0.150468627546 0.00020252709365 0)
(0.15119375968 0.000232450362212 0)
(0.152492747168 0.000191649829353 0)
(0.155021714445 -0.000216765538285 0)
(0.162374913032 -0.00211000769439 0)
(0.187702665085 -0.010788104483 0)
(0.204357839381 -0.049657390758 0)
(0.965408257334 0.289214704258 0)
(0.961962870047 0.252656036383 0)
(0.823574410964 0.159021437301 0)
(0.698139396456 0.0959957264918 0)
(0.610225499934 0.0582481092437 0)
(0.548971536024 0.0362148481968 0)
(0.506588940857 0.0231612801127 0)
(0.477567327997 0.0151375103313 0)
(0.457745557319 0.0100177502293 0)
(0.444228532497 0.00665813631835 0)
(0.43505337639 0.00441555145199 0)
(0.428873201893 0.00290686100736 0)
(0.424754291395 0.00189105348668 0)
(0.42204674715 0.00121004025606 0)
(0.420297915757 0.00075715813108 0)
(0.419193312489 0.000459250328244 0)
(0.418515713277 0.000265848944683 0)
(0.418116572455 0.000142393477683 0)
(0.417895975382 6.61033076466e-05 0)
(0.417786930903 2.30865987003e-05 0)
(0.417745523169 1.40213442443e-06 0)
(0.417742252575 -1.01690929492e-05 0)
(0.417756856727 -1.37206524578e-05 0)
(0.417778822178 -1.32741250455e-05 0)
(0.41780312359 -1.08419423984e-05 0)
(0.41782650151 -7.49892812627e-06 0)
(0.417847262545 -3.88261722796e-06 0)
(0.417864807958 -3.6308199929e-07 0)
(0.417879141554 2.85824571225e-06 0)
(0.417890578604 5.6775474987e-06 0)
(0.417899590862 8.03066766462e-06 0)
(0.417906672307 9.83333439442e-06 0)
(0.417912024816 1.10027035735e-05 0)
(0.417915881752 1.18553963178e-05 0)
(0.417918621033 1.26770433189e-05 0)
(0.417920517755 1.34338275053e-05 0)
(0.417921813992 1.41078071845e-05 0)
(0.417922701077 1.47229871152e-05 0)
(0.417923305483 1.53083557366e-05 0)
(0.417923698863 1.58775597831e-05 0)
(0.41792393394 1.64309574459e-05 0)
(0.417924054172 1.69736454295e-05 0)
(0.417924090263 1.75093374788e-05 0)
(0.417924064746 1.80413348449e-05 0)
(0.41792399389 1.85727787246e-05 0)
(0.417923889844 1.91060205311e-05 0)
(0.417923763037 1.96429731437e-05 0)
(0.417923623931 2.01854786552e-05 0)
(0.417923484457 2.07355362857e-05 0)
(0.417923358155 2.12954307036e-05 0)
(0.417923262853 2.18651261223e-05 0)
(0.41792322363 2.24446793175e-05 0)
(0.4179232744 2.30340702894e-05 0)
(0.417923461716 2.36329102632e-05 0)
(0.417923850992 2.42404696747e-05 0)
(0.417924534864 2.48561205525e-05 0)
(0.417925645164 2.54769030936e-05 0)
(0.41792737642 2.60909579201e-05 0)
(0.417930006641 2.66816854156e-05 0)
(0.417933925028 2.72181822379e-05 0)
(0.41793973688 2.76496981699e-05 0)
(0.41794854053 2.79288833826e-05 0)
(0.417961821323 2.82157455995e-05 0)
(0.417981719562 2.7757378443e-05 0)
(0.418010997328 2.51422359852e-05 0)
(0.418053262251 1.93084817278e-05 0)
(0.418114708338 9.44891672957e-06 0)
(0.418205453599 -5.9701747538e-06 0)
(0.418341097555 -2.94725897854e-05 0)
(0.418546531568 -6.47383112955e-05 0)
(0.418863646053 -0.000115957917748 0)
(0.419362029466 -0.000188100143405 0)
(0.420155136793 -0.000307870013881 0)
(0.421446605471 -0.000532828236961 0)
(0.423628044785 -0.000999786386392 0)
(0.427418080419 -0.00209041593372 0)
(0.43423874003 -0.004856203451 0)
(0.448264752237 -0.01225352668 0)
(0.474642850372 -0.0342405655093 0)
(0.478163081669 -0.0987666540927 0)
(1.02222096825 0.238416184522 0)
(1.0821375391 0.295926648124 0)
(1.03447724277 0.239503060976 0)
(0.954615432337 0.174290158486 0)
(0.879992085616 0.121345462135 0)
(0.818614472314 0.0830993776984 0)
(0.771410894039 0.0567316606752 0)
(0.736634440986 0.0387409621457 0)
(0.711624489879 0.0264327807045 0)
(0.693916685183 0.0179730984625 0)
(0.681541482611 0.0121424417409 0)
(0.67300019724 0.00812490198433 0)
(0.667180739048 0.00536631479164 0)
(0.663271775694 0.00348443845039 0)
(0.660688610797 0.00221255514714 0)
(0.659014292494 0.00136337539108 0)
(0.657954617302 0.000805237325348 0)
(0.657304329834 0.000445910157791 0)
(0.656921916532 0.000221062096093 0)
(0.656710355925 8.5574687493e-05 0)
(0.656603495763 8.35140369781e-06 0)
(0.656561950833 -3.37270929044e-05 0)
(0.656558054437 -5.68621976651e-05 0)
(0.656571533429 -6.68814407202e-05 0)
(0.656593066043 -6.84889648829e-05 0)
(0.656616888809 -6.55676955322e-05 0)
(0.656639694427 -6.05569226124e-05 0)
(0.656659876065 -5.48672955308e-05 0)
(0.656676848524 -4.92832815532e-05 0)
(0.656690589738 -4.42118272481e-05 0)
(0.656701346165 -3.98476979664e-05 0)
(0.656709501492 -3.63092317979e-05 0)
(0.656715751399 -3.37029533459e-05 0)
(0.656720786546 -3.18641181124e-05 0)
(0.656724651165 -3.08170693903e-05 0)
(0.656727360433 -3.03098341183e-05 0)
(0.65672922524 -3.02537729424e-05 0)
(0.656730525088 -3.05645079433e-05 0)
(0.656731427732 -3.10921578569e-05 0)
(0.656732023058 -3.17540445111e-05 0)
(0.656732385351 -3.25207331101e-05 0)
(0.65673258005 -3.33570873977e-05 0)
(0.656732652332 -3.42384828405e-05 0)
(0.656732636231 -3.51458103012e-05 0)
(0.656732556464 -3.60636580368e-05 0)
(0.656732431519 -3.69811930539e-05 0)
(0.656732277455 -3.78907850314e-05 0)
(0.656732110282 -3.87868495115e-05 0)
(0.656731947707 -3.96649956876e-05 0)
(0.656731807906 -4.05194805547e-05 0)
(0.65673171499 -4.13471624467e-05 0)
(0.656731704868 -4.21440379105e-05 0)
(0.656731826765 -4.29084271815e-05 0)
(0.656732149166 -4.36437471242e-05 0)
(0.656732769383 -4.43637098173e-05 0)
(0.656733823935 -4.50989001105e-05 0)
(0.656735501487 -4.5905568234e-05 0)
(0.656738081468 -4.68782171832e-05 0)
(0.65674197319 -4.81418615213e-05 0)
(0.656747772858 -4.99165831609e-05 0)
(0.656756417519 -5.27157397927e-05 0)
(0.656769556733 -5.75341381085e-05 0)
(0.65678849772 -6.51824183682e-05 0)
(0.656814684535 -7.652021919e-05 0)
(0.656851973692 -9.32458881383e-05 0)
(0.65690707494 -0.000117752112912 0)
(0.656989361684 -0.000153241789516 0)
(0.657112625829 -0.000205002659242 0)
(0.657298683393 -0.000281554286334 0)
(0.657582926342 -0.000396770347399 0)
(0.658023480019 -0.000574998415297 0)
(0.658709532003 -0.000863500288071 0)
(0.659788124316 -0.00135234153764 0)
(0.661516774695 -0.00221462428745 0)
(0.664337606753 -0.00381285933563 0)
(0.668946306036 -0.0069457815771 0)
(0.676368641029 -0.0133519072492 0)
(0.688612264916 -0.0268420547258 0)
(0.705235900276 -0.0563164294828 0)
(0.700486690077 -0.11307732984 0)
(1.02251475726 0.170807150265 0)
(1.10138976578 0.276496474431 0)
(1.11752427551 0.266664794267 0)
(1.09214662528 0.21990169346 0)
(1.05187818086 0.168168841647 0)
(1.01020825377 0.12356739033 0)
(0.973494724245 0.0888375149818 0)
(0.943864593274 0.0630063649053 0)
(0.921142840546 0.0442231974688 0)
(0.904284117372 0.0307423861845 0)
(0.892074917286 0.0211562876305 0)
(0.883404563185 0.0143954621032 0)
(0.877352727435 0.00966794183229 0)
(0.873197768942 0.00639383083924 0)
(0.870392996638 0.00415115843365 0)
(0.868534112228 0.00263448439682 0)
(0.867327719525 0.00162401066458 0)
(0.866564320323 0.00096266901801 0)
(0.866096566623 0.000539115142779 0)
(0.865822327857 0.000275146029132 0)
(0.865671487174 0.000117060650501 0)
(0.865595239508 2.87850535268e-05 0)
(0.86556418478 -1.93320111704e-05 0)
(0.865561379981 -4.12684069896e-05 0)
(0.865572726901 -4.76725134899e-05 0)
(0.86558973627 -4.55318619456e-05 0)
(0.865608049165 -3.91622770738e-05 0)
(0.865625391614 -3.11512533263e-05 0)
(0.865640679759 -2.2969947839e-05 0)
(0.865653546542 -1.53860528876e-05 0)
(0.865664023566 -8.72838815921e-06 0)
(0.865672314319 -3.04969382376e-06 0)
(0.865678671298 1.72900203558e-06 0)
(0.865683302429 5.4608147778e-06 0)
(0.865686624968 8.02908117042e-06 0)
(0.865689026337 9.78672238475e-06 0)
(0.865690660954 1.11397618215e-05 0)
(0.865691824731 1.2284168456e-05 0)
(0.865692694405 1.32521857935e-05 0)
(0.865693288322 1.41379993607e-05 0)
(0.865693654453 1.49324271622e-05 0)
(0.865693857476 1.56581317108e-05 0)
(0.86569393613 1.63309158352e-05 0)
(0.865693921886 1.69670375391e-05 0)
(0.865693837242 1.75812043794e-05 0)
(0.865693698532 1.81836354557e-05 0)
(0.865693520885 1.87817742069e-05 0)
(0.865693320646 1.93815337036e-05 0)
(0.865693118996 1.99901878312e-05 0)
(0.865692938892 2.06188239811e-05 0)
(0.865692810386 2.12520168767e-05 0)
(0.865692775657 2.18766328055e-05 0)
(0.8656928882 2.24758790214e-05 0)
(0.86569321811 2.30236513797e-05 0)
(0.865693860005 2.34841423473e-05 0)
(0.865694945233 2.38233323498e-05 0)
(0.865696658795 2.39978851285e-05 0)
(0.865699294022 2.38905088312e-05 0)
(0.865703255538 2.33553112132e-05 0)
(0.865708957826 2.19787830953e-05 0)
(0.8657168785 1.91954647007e-05 0)
(0.865728634308 1.42933606298e-05 0)
(0.865746810419 5.44879041039e-06 0)
(0.865774379556 -8.92268862714e-06 0)
(0.865815209174 -3.08204498916e-05 0)
(0.865875222611 -6.4207134951e-05 0)
(0.865963759056 -0.000115955988525 0)
(0.866095330724 -0.000196825596118 0)
(0.866292484543 -0.000324072141264 0)
(0.866590034253 -0.000526164648928 0)
(0.867041574288 -0.00085204047768 0)
(0.867732153729 -0.00138862088245 0)
(0.868798094778 -0.00228465004455 0)
(0.870452604752 -0.00381467407066 0)
(0.873014490999 -0.00650287014652 0)
(0.87688252101 -0.0113585278243 0)
(0.882379002656 -0.0202505156561 0)
(0.889686857343 -0.0364491617842 0)
(0.896360716129 -0.065485792887 0)
(0.886530135685 -0.110032420798 0)
(1.01287875341 0.1189610218 0)
(1.08820671522 0.231806933841 0)
(1.13741368336 0.253106761098 0)
(1.15409088379 0.228992749713 0)
(1.14994212925 0.188368354683 0)
(1.13538467857 0.146579839454 0)
(1.11758897532 0.110150960814 0)
(1.1005950328 0.080816216966 0)
(1.08612460559 0.0582265710875 0)
(1.07459096262 0.0413189795886 0)
(1.06579150867 0.028916014771 0)
(1.05928803485 0.0199600945146 0)
(1.05459981365 0.0135815546443 0)
(1.05129081945 0.00909743769831 0)
(1.04899990554 0.0059861484689 0)
(1.04744346617 0.00385696089165 0)
(1.04640659643 0.00242159234636 0)
(1.04573068462 0.00147014445372 0)
(1.04530113243 0.000851696165925 0)
(1.04503663815 0.00045901049133 0)
(1.04488027817 0.000216750978938 0)
(1.04479266445 7.30121420021e-05 0)
(1.04474880192 -5.50929027109e-06 0)
(1.04473190516 -4.40134978544e-05 0)
(1.04472965715 -5.93906244061e-05 0)
(1.04473514385 -6.17241968763e-05 0)
(1.04474409449 -5.72504679872e-05 0)
(1.04475398114 -4.98083561953e-05 0)
(1.0447634242 -4.16489535637e-05 0)
(1.04477175352 -3.39932295059e-05 0)
(1.04477871874 -2.74274855403e-05 0)
(1.04478430714 -2.21552244368e-05 0)
(1.04478866475 -1.81314854208e-05 0)
(1.04479200263 -1.51426787379e-05 0)
(1.04479457528 -1.28118439255e-05 0)
(1.04479667571 -1.10160744381e-05 0)
(1.04479841617 -9.52857299061e-06 0)
(1.04479974222 -8.23997855868e-06 0)
(1.04480072378 -7.22129885478e-06 0)
(1.04480141186 -6.55256236552e-06 0)
(1.0448018277 -6.17354809592e-06 0)
(1.04480205878 -5.96539378595e-06 0)
(1.04480215053 -5.87695707599e-06 0)
(1.04480214131 -5.8599034368e-06 0)
(1.0448020562 -5.87366764744e-06 0)
(1.04480191281 -5.89814502927e-06 0)
(1.04480172847 -5.92351989702e-06 0)
(1.04480152393 -5.9453086116e-06 0)
(1.04480132684 -5.96662891263e-06 0)
(1.04480114343 -6.00217377633e-06 0)
(1.04480098744 -6.03427010199e-06 0)
(1.04480090498 -6.06054023794e-06 0)
(1.04480095106 -6.08757353728e-06 0)
(1.04480120171 -6.13067822131e-06 0)
(1.04480178061 -6.22953515476e-06 0)
(1.04480286519 -6.50096459203e-06 0)
(1.0448046433 -7.20351372186e-06 0)
(1.04480741121 -8.61457653344e-06 0)
(1.04481148006 -1.12271750047e-05 0)
(1.04481732033 -1.50602251273e-05 0)
(1.04482594466 -1.99951309944e-05 0)
(1.04483850603 -2.62313362676e-05 0)
(1.04485629937 -3.60434730278e-05 0)
(1.04488162512 -5.24153696017e-05 0)
(1.04491795289 -7.95617464026e-05 0)
(1.04497043587 -0.000123726873192 0)
(1.04504667723 -0.000194678984167 0)
(1.04515802427 -0.000307994701808 0)
(1.0453216211 -0.000488835072932 0)
(1.0455633264 -0.000778216321447 0)
(1.04592181149 -0.00124344556903 0)
(1.04645491772 -0.0019961451308 0)
(1.04724673753 -0.0032268228745 0)
(1.04841018044 -0.00526620518266 0)
(1.05007250414 -0.00869104444166 0)
(1.05229030131 -0.0144949277775 0)
(1.05481951352 -0.0242846344086 0)
(1.05687052943 -0.0403697159985 0)
(1.05573768513 -0.0655890219189 0)
(1.04212409344 -0.0994451982122 0)
(1.00447483688 0.0814039963968 0)
(1.06917238006 0.181288536789 0)
(1.13080569836 0.216950416324 0)
(1.17375001988 0.210789152844 0)
(1.19865267242 0.183690073745 0)
(1.21019990496 0.149751679703 0)
(1.21350258668 0.116779139986 0)
(1.2125172738 0.0882206733426 0)
(1.20973102035 0.0650481460623 0)
(1.20651123757 0.0470209038066 0)
(1.20351917847 0.0334068033115 0)
(1.20101150139 0.0233557272688 0)
(1.19903450483 0.0160720085741 0)
(1.19753883708 0.0108795084914 0)
(1.19644137604 0.00723418289 0)
(1.19565565064 0.00471351337974 0)
(1.19510495805 0.00299762407277 0)
(1.19472654813 0.00184915594657 0)
(1.19447157001 0.00109495563977 0)
(1.19430326233 0.000610606729816 0)
(1.1941946254 0.00030798211525 0)
(1.1941263429 0.00012576432452 0)
(1.19408529501 2.22191208164e-05 0)
(1.1940620378 -3.24558570373e-05 0)
(1.19404973889 -5.72743992709e-05 0)
(1.19404424137 -6.460001423e-05 0)
(1.19404274449 -6.23780206524e-05 0)
(1.19404342985 -5.55233034272e-05 0)
(1.1940451818 -4.69462456055e-05 0)
(1.19404734216 -3.8260336503e-05 0)
(1.19404953853 -3.0266681001e-05 0)
(1.19405157879 -2.32703196298e-05 0)
(1.19405339383 -1.72947821124e-05 0)
(1.194054978 -1.22665168931e-05 0)
(1.19405634752 -8.07904091903e-06 0)
(1.1940575215 -4.67804370595e-06 0)
(1.19405847272 -2.06681757807e-06 0)
(1.19405914824 -1.77298830248e-07 0)
(1.19405950719 1.14053074862e-06 0)
(1.19405962435 1.99564690556e-06 0)
(1.19405968145 2.67235326559e-06 0)
(1.19405971603 3.27293293418e-06 0)
(1.19405970059 3.79737505645e-06 0)
(1.19405965167 4.25586618992e-06 0)
(1.19405956625 4.65972389524e-06 0)
(1.1940594353 5.02538894506e-06 0)
(1.19405926181 5.36493879849e-06 0)
(1.19405905312 5.68186723382e-06 0)
(1.19405881722 5.96807488898e-06 0)
(1.19405859624 6.20497687302e-06 0)
(1.19405843895 6.41698507183e-06 0)
(1.19405837447 6.59782143575e-06 0)
(1.19405845111 6.72083699153e-06 0)
(1.19405872567 6.74493611003e-06 0)
(1.19405923078 6.60978235546e-06 0)
(1.19405994838 6.22152428445e-06 0)
(1.19406097056 5.43467013952e-06 0)
(1.19406245129 3.85315387143e-06 0)
(1.19406507653 1.08334800521e-06 0)
(1.19406987135 -3.17811469657e-06 0)
(1.19407734545 -9.71045764145e-06 0)
(1.19408744245 -1.98889300577e-05 0)
(1.19410094041 -3.57345942112e-05 0)
(1.19411982946 -6.01665985063e-05 0)
(1.19414623673 -9.77665333238e-05 0)
(1.19418298606 -0.000155851346252 0)
(1.19423407019 -0.000246066803435 0)
(1.19430512427 -0.000386891182023 0)
(1.19440403476 -0.00060778035425 0)
(1.19454158001 -0.000956063672416 0)
(1.19473180437 -0.00150824725211 0)
(1.19499147985 -0.00238860062836 0)
(1.19533541817 -0.00380033082022 0)
(1.1957608703 -0.0060763357844 0)
(1.19620749543 -0.00975540403155 0)
(1.19645555547 -0.0156812607035 0)
(1.19591824219 -0.0250646712859 0)
(1.19344107187 -0.0393611043936 0)
(1.18668905676 -0.0598133367684 0)
(1.17014402652 -0.0851111314064 0)
(0.998962327801 0.0544316246167 0)
(1.05310957503 0.133401606297 0)
(1.11628269349 0.170777556763 0)
(1.17301273546 0.175143870382 0)
(1.21791248315 0.159583604316 0)
(1.25049860413 0.134951017631 0)
(1.27288494091 0.108411653934 0)
(1.28776725492 0.0838849685866 0)
(1.29745271764 0.0630565688831 0)
(1.30366079217 0.0462999177846 0)
(1.30759238944 0.0333205111852 0)
(1.31005375159 0.0235495204117 0)
(1.31157367997 0.0163599041934 0)
(1.31249498719 0.0111713115846 0)
(1.31303868474 0.0074915030979 0)
(1.31334678089 0.00492448217564 0)
(1.3135101993 0.00316295129272 0)
(1.31358683365 0.0019747476699 0)
(1.31361321434 0.00118819244653 0)
(1.31361206914 0.000678624655346 0)
(1.31359723579 0.000357003750675 0)
(1.31357691891 0.00016074948933 0)
(1.3135559288 4.64647678538e-05 0)
(1.31353663761 -1.58735982408e-05 0)
(1.31351998393 -4.6061886339e-05 0)
(1.31350629944 -5.7071690641e-05 0)
(1.31349539926 -5.73261913156e-05 0)
(1.31348694628 -5.20875000913e-05 0)
(1.31348055231 -4.45249863796e-05 0)
(1.31347583218 -3.64630852522e-05 0)
(1.31347243482 -2.88748795296e-05 0)
(1.31347005716 -2.2213840229e-05 0)
(1.31346843965 -1.66313595106e-05 0)
(1.31346735407 -1.21348683103e-05 0)
(1.31346663489 -8.65858980135e-06 0)
(1.31346618465 -6.10095796231e-06 0)
(1.31346590234 -4.32485836878e-06 0)
(1.31346569849 -3.12332433427e-06 0)
(1.31346556959 -2.26716498585e-06 0)
(1.31346560156 -1.55181634571e-06 0)
(1.31346575771 -9.76483655929e-07 0)
(1.3134658601 -5.64415414908e-07 0)
(1.31346585835 -2.07747447214e-07 0)
(1.31346578405 1.25317418213e-07 0)
(1.31346565763 4.32730600153e-07 0)
(1.3134654919 7.22602017991e-07 0)
(1.31346529066 1.00640476406e-06 0)
(1.31346505685 1.29389695004e-06 0)
(1.31346480007 1.59482870534e-06 0)
(1.31346455405 1.91417679802e-06 0)
(1.31346434277 2.20103873053e-06 0)
(1.31346417385 2.41605893135e-06 0)
(1.31346407778 2.51452579863e-06 0)
(1.31346410839 2.43253412138e-06 0)
(1.31346435385 2.08516789677e-06 0)
(1.31346493391 1.38690829195e-06 0)
(1.31346580923 2.83536914544e-07 0)
(1.31346709226 -1.40239317168e-06 0)
(1.3134692061 -3.91517462166e-06 0)
(1.31347234917 -7.98518986167e-06 0)
(1.31347673747 -1.48909789564e-05 0)
(1.31348260335 -2.61998309361e-05 0)
(1.31349022667 -4.3508578811e-05 0)
(1.31350009518 -6.99939332056e-05 0)
(1.31351252895 -0.000110685048691 0)
(1.31352761415 -0.000173328212389 0)
(1.31354497409 -0.000270005393378 0)
(1.31356330362 -0.000419670042423 0)
(1.31357942031 -0.000652133707997 0)
(1.31358642764 -0.00101460920156 0)
(1.3135702819 -0.00158208620662 0)
(1.31350356646 -0.0024735857903 0)
(1.31333208615 -0.00387631304932 0)
(1.31294831629 -0.00608255882722 0)
(1.31214233408 -0.00953669485445 0)
(1.31050891316 -0.0148800773445 0)
(1.30729492783 -0.0229407024214 0)
(1.30129114289 -0.0345585822004 0)
(1.29063043163 -0.0501706844794 0)
(1.2718418561 -0.0685500497696 0)
(0.99573607633 0.0346338595034 0)
(1.04179515116 0.0905689203918 0)
(1.10222840066 0.121549564206 0)
(1.16491413618 0.129605833255 0)
(1.22202568924 0.12200926738 0)
(1.26951895204 0.106019937007 0)
(1.30680227512 0.0870975543305 0)
(1.33499539639 0.0686366791924 0)
(1.35574482303 0.0523698369863 0)
(1.3706962217 0.0389256157773 0)
(1.38128281493 0.0282980711012 0)
(1.38866274201 0.0201712747852 0)
(1.39373040333 0.0141175079397 0)
(1.39715668222 0.00970533347005 0)
(1.39943442842 0.0065505926286 0)
(1.40091975482 0.00433445189547 0)
(1.40186630554 0.00280414202012 0)
(1.40245233043 0.00176574010243 0)
(1.40280143237 0.00107419205959 0)
(1.4029981335 0.000623231957675 0)
(1.40309935905 0.000336406205678 0)
(1.4031428167 0.000159620244746 0)
(1.40315308157 5.5161480887e-05 0)
(1.40314559708 -3.0005362522e-06 0)
(1.40312984216 -3.21247794756e-05 0)
(1.4031114446 -4.38920880771e-05 0)
(1.40309341152 -4.57620722826e-05 0)
(1.40307726751 -4.24198979603e-05 0)
(1.40306361412 -3.67290473213e-05 0)
(1.40305252505 -3.03663087301e-05 0)
(1.40304379851 -2.42463302086e-05 0)
(1.40303710911 -1.88162233027e-05 0)
(1.40303209559 -1.42444152273e-05 0)
(1.40302840798 -1.05330696698e-05 0)
(1.40302574828 -7.58160397935e-06 0)
(1.40302388417 -5.26520451039e-06 0)
(1.40302263906 -3.46107847102e-06 0)
(1.40302186249 -2.02575089432e-06 0)
(1.40302138913 -8.54227333942e-07 0)
(1.40302102464 7.66951359687e-08 0)
(1.40302070036 7.85331217019e-07 0)
(1.40302049716 1.27486300191e-06 0)
(1.40302040381 1.64638813661e-06 0)
(1.4030203289 1.96450473451e-06 0)
(1.40302023721 2.26704327091e-06 0)
(1.40302012169 2.57233281015e-06 0)
(1.40301998092 2.88962326468e-06 0)
(1.40301981718 3.22333580313e-06 0)
(1.40301963225 3.57378978386e-06 0)
(1.40301941916 3.93213920842e-06 0)
(1.4030191893 4.25660454981e-06 0)
(1.40301897642 4.51480372047e-06 0)
(1.40301880913 4.6681391096e-06 0)
(1.40301871253 4.65873393629e-06 0)
(1.403018703 4.39790710951e-06 0)
(1.40301878724 3.74360344503e-06 0)
(1.40301897851 2.49313312568e-06 0)
(1.4030192695 5.21956359032e-07 0)
(1.40301989476 -2.58592024872e-06 0)
(1.40302104044 -7.59869187246e-06 0)
(1.40302255145 -1.53134914135e-05 0)
(1.40302409965 -2.70530460883e-05 0)
(1.40302521489 -4.46715756244e-05 0)
(1.40302515608 -7.11545508991e-05 0)
(1.40302243501 -0.000111091351084 0)
(1.40301431501 -0.000171511133063 0)
(1.40299599384 -0.000263287465486 0)
(1.40295929201 -0.000403290211746 0)
(1.40289027788 -0.000617575069497 0)
(1.40276524439 -0.000946747554108 0)
(1.40254417051 -0.00145412855012 0)
(1.40216072585 -0.00223812790523 0)
(1.40150339086 -0.00344777220235 0)
(1.40038386273 -0.00530675521325 0)
(1.39848891705 -0.0081378383639 0)
(1.39530549598 -0.0123757540872 0)
(1.39002066869 -0.0185313704878 0)
(1.3814865288 -0.0270423158094 0)
(1.36820739579 -0.0379902621704 0)
(1.34779178777 -0.0504829235533 0)
(0.994011533524 0.0192358060851 0)
(1.03484764314 0.0523338398489 0)
(1.09199263997 0.0723631269445 0)
(1.15662421873 0.0791292314743 0)
(1.22032118844 0.0761045456772 0)
(1.27701948387 0.0673339706265 0)
(1.32424422623 0.056150902545 0)
(1.36181577917 0.0447990099787 0)
(1.39068535691 0.0345303765766 0)
(1.41226080452 0.0258814314716 0)
(1.42801828117 0.0189465230247 0)
(1.43929890498 0.0135849811004 0)
(1.44722814275 0.00955653321931 0)
(1.45270420299 0.00660011423607 0)
(1.45641903264 0.00447418893681 0)
(1.45889152321 0.00297351204765 0)
(1.46050239306 0.00193276721384 0)
(1.4615257951 0.00122369234802 0)
(1.46215581608 0.000749549201579 0)
(1.46252764597 0.000439016546183 0)
(1.46273392811 0.000240520107248 0)
(1.46283707578 0.000117411076184 0)
(1.4628783831 4.40487446985e-05 0)
(1.46288462667 2.69043466226e-06 0)
(1.46287250655 -1.844466964e-05 0)
(1.46285215945 -2.74384183149e-05 0)
(1.46282961233 -2.94381676017e-05 0)
(1.46280807806 -2.76880822e-05 0)
(1.46278908447 -2.41860420141e-05 0)
(1.46277317594 -2.01132685803e-05 0)
(1.46276034368 -1.61184117482e-05 0)
(1.46275029333 -1.25242722628e-05 0)
(1.46274261422 -9.45747171966e-06 0)
(1.4627368741 -6.9288914784e-06 0)
(1.46273267423 -4.88480970799e-06 0)
(1.46272967227 -3.25588971243e-06 0)
(1.46272757994 -1.97902738418e-06 0)
(1.46272614052 -1.01315910288e-06 0)
(1.46272514145 -3.13517036137e-07 0)
(1.46272451838 2.07978574018e-07 0)
(1.46272415916 6.87843079181e-07 0)
(1.46272391366 1.16236690456e-06 0)
(1.4627237492 1.58607398346e-06 0)
(1.46272362672 1.96502042783e-06 0)
(1.46272351666 2.32017267474e-06 0)
(1.46272339999 2.66489194884e-06 0)
(1.46272326334 3.00452436488e-06 0)
(1.46272309827 3.33703550647e-06 0)
(1.4627229005 3.65271745697e-06 0)
(1.46272266772 3.93856785297e-06 0)
(1.46272240324 4.18646068809e-06 0)
(1.46272211503 4.36500077046e-06 0)
(1.46272181049 4.42301431598e-06 0)
(1.46272150015 4.29011534412e-06 0)
(1.46272120084 3.87545029922e-06 0)
(1.46272093642 3.07047158708e-06 0)
(1.46272066778 1.75354609652e-06 0)
(1.46272031069 -1.9874881254e-07 0)
(1.46271973731 -3.02410641078e-06 0)
(1.46271880399 -7.59613542126e-06 0)
(1.46271724274 -1.46967917121e-05 0)
(1.46271437441 -2.54206281371e-05 0)
(1.46270908168 -4.13138483952e-05 0)
(1.46269955816 -6.47590199918e-05 0)
(1.46268274295 -9.93572134154e-05 0)
(1.46265349765 -0.000150499594415 0)
(1.46260331602 -0.000226369881812 0)
(1.46251844301 -0.000339435397085 0)
(1.46237641757 -0.000508302618103 0)
(1.46214040169 -0.000761387900508 0)
(1.46175044015 -0.0011424421912 0)
(1.46111194765 -0.00171911135155 0)
(1.46007382964 -0.00258712433977 0)
(1.45839513027 -0.00388601249043 0)
(1.45570196115 -0.00580814719568 0)
(1.45142898315 -0.00859662438515 0)
(1.4447559131 -0.0125115624215 0)
(1.43461383625 -0.0177333618396 0)
(1.41974352104 -0.0242102317215 0)
(1.39829944861 -0.0313961431048 0)
(0.993269669493 0.00617015038389 0)
(1.03158100713 0.0171020458789 0)
(1.08672183102 0.023990648568 0)
(1.1517455633 0.0265606658359 0)
(1.21823538771 0.02581805891 0)
(1.27925777223 0.0230488862419 0)
(1.33140139632 0.0193656316198 0)
(1.37377602978 0.0155468581898 0)
(1.40691058215 0.0120449305172 0)
(1.43203318797 0.00906640009579 0)
(1.45060220776 0.00666059515045 0)
(1.46402992128 0.00479009189571 0)
(1.47355022839 0.00337842878325 0)
(1.48017570632 0.00233873867821 0)
(1.48470236527 0.00158891461313 0)
(1.48773628742 0.00105828971847 0)
(1.48972743109 0.000689463690281 0)
(1.49100286725 0.000437639449259 0)
(1.49179595352 0.000268886935898 0)
(1.49227033038 0.000158112471544 0)
(1.49253882859 8.71262039978e-05 0)
(1.49267791128 4.29766077457e-05 0)
(1.49273845084 1.65867762925e-05 0)
(1.49275363059 1.66625980093e-06 0)
(1.49274439918 -6.0662807451e-06 0)
(1.49272361631 -9.4112962934e-06 0)
(1.49269897708 -1.02172489898e-05 0)
(1.49267470952 -9.65377974762e-06 0)
(1.49265291108 -8.43967603262e-06 0)
(1.49263442324 -6.99293274853e-06 0)
(1.49261936865 -5.5537552402e-06 0)
(1.49260748508 -4.24218600907e-06 0)
(1.49259834297 -3.10568898522e-06 0)
(1.49259146674 -2.15045837595e-06 0)
(1.49258640235 -1.3603435641e-06 0)
(1.49258274958 -7.13572656024e-07 0)
(1.49258017263 -1.88727098031e-07 0)
(1.4925784015 2.360228942e-07 0)
(1.49257723068 6.06627438252e-07 0)
(1.49257648244 9.75552084034e-07 0)
(1.49257600285 1.28046185106e-06 0)
(1.49257570007 1.56438314217e-06 0)
(1.49257551656 1.84499009367e-06 0)
(1.4925753998 2.13241581152e-06 0)
(1.49257531053 2.43381723886e-06 0)
(1.4925752224 2.75192667096e-06 0)
(1.49257511694 3.08598380612e-06 0)
(1.49257498095 3.43177617773e-06 0)
(1.49257480456 3.7806145694e-06 0)
(1.49257457941 4.11823558847e-06 0)
(1.49257429992 4.4245521892e-06 0)
(1.49257396233 4.66718781621e-06 0)
(1.49257356024 4.80098367931e-06 0)
(1.4925730822 4.76415969176e-06 0)
(1.49257250774 4.47165352067e-06 0)
(1.49257181045 3.8057977344e-06 0)
(1.49257097505 2.61012771714e-06 0)
(1.49256986471 8.11891607073e-07 0)
(1.49256806319 -1.83824440175e-06 0)
(1.49256527466 -5.96727369026e-06 0)
(1.49256110557 -1.21065486429e-05 0)
(1.49255452907 -2.102870638e-05 0)
(1.49254393368 -3.38219431711e-05 0)
(1.49252677768 -5.20399911405e-05 0)
(1.49249894883 -7.78826383672e-05 0)
(1.49245374643 -0.000114376582197 0)
(1.49238029874 -0.000165900756688 0)
(1.49226154255 -0.00023894320701 0)
(1.49207011199 -0.000341998766104 0)
(1.49176139198 -0.000487617227047 0)
(1.49126310475 -0.000696012609977 0)
(1.49046652819 -0.00100087405255 0)
(1.48920225966 -0.00143460607972 0)
(1.48720443673 -0.0020447339246 0)
(1.48407462924 -0.00289261684324 0)
(1.47923302987 -0.00404573454214 0)
(1.47187281397 -0.00555835580431 0)
(1.46098048372 -0.00743198627591 0)
(1.44540883813 -0.00957260794554 0)
(1.42354839238 -0.0117317541952 0)
(0.993270467285 -0.00616840163595 0)
(1.03158098967 -0.0171003758163 0)
(1.08672176461 -0.0239897615528 0)
(1.15174560085 -0.0265602467897 0)
(1.21823546546 -0.0258179929285 0)
(1.27925787412 -0.0230491097832 0)
(1.33140152221 -0.019366046595 0)