/*--------------------------------*- C++ -*----------------------------------*\
| =========                 |                                                 |
| \\      /  F ield         | OpenFOAM: The Open Source CFD Toolbox           |
|  \\    /   O peration     | Version:  2106                                  |
|   \\  /    A nd           | Website:  www.openfoam.com                      |
|    \\/     M anipulation  |                                                 |
\*---------------------------------------------------------------------------*/
FoamFile
{
    version     2.0;
    format      ascii;
    arch        "LSB;label=32;scalar=64";
    class       surfaceScalarField;
    location    "0.086";
    object      phi;
}
// * * * * * * * * * * * * * * * * * * * * * * * * * * * * * * * * * * * * * //

dimensions      [0 3 -1 0 0 0 0];

oriented        oriented;

internalField   nonuniform List<scalar> 
799
(
1.74094e-32
4.48136e-32
5.75763e-32
4.63021e-32
2.06317e-32
-4.6612e-32
-1.06596e-31
-1.53072e-31
-1.63719e-31
-1.2655e-31
-7.13457e-32
-9.66294e-33
2.82142e-32
3.7355e-32
1.51642e-32
-2.46727e-32
-7.61781e-32
-1.29146e-31
-1.69734e-31
-1.97975e-31
-1.90071e-31
-1.54194e-31
-9.32391e-32
-2.26793e-32
1.77035e-32
2.65966e-32
-1.52758e-32
-8.61086e-32
-1.52618e-31
-2.05429e-31
-2.085e-31
-1.81427e-31
-1.35322e-31
-8.05065e-32
-5.58531e-32
-4.50134e-32
-6.24523e-32
-1.00595e-31
-1.30719e-31
-1.67659e-31
-1.76874e-31
-1.64635e-31
-1.41408e-31
-9.49273e-32
-6.99131e-32
-5.98302e-32
-7.59456e-32
-1.25105e-31
-1.65252e-31
-2.01729e-31
-2.03839e-31
-1.70167e-31
-1.27149e-31
-7.29976e-32
-4.87243e-32
-5.50107e-32
-8.82332e-32
-1.47432e-31
-1.92935e-31
-2.18176e-31
-2.05093e-31
-1.52021e-31
-8.99842e-32
-3.51138e-32
-2.23528e-32
-6.31404e-32
-1.36976e-31
-2.20523e-31
-2.65972e-31
-2.48466e-31
-1.77092e-31
-7.53377e-32
1.12133e-33
1.7687e-32
-2.93418e-32
-1.23057e-31
-2.09484e-31
-2.54021e-31
-2.42403e-31
-1.83025e-31
-1.16644e-31
-6.7489e-32
-5.19647e-32
-6.68027e-32
-9.07453e-32
-1.16505e-31
-1.35892e-31
-1.53837e-31
-1.73942e-31
-1.86001e-31
-1.83829e-31
-1.52501e-31
-9.97336e-32
-4.612e-32
-1.32528e-32
-3.19388e-32
-9.03308e-32
-1.71906e-31
-2.41066e-31
-2.54223e-31
-2.18742e-31
-1.32763e-31
-4.17302e-32
1.17098e-32
2.09475e-32
-3.67922e-32
-1.15849e-31
-1.89425e-31
-2.33143e-31
-2.15934e-31
-1.71892e-31
-1.08928e-31
-6.20857e-32
-5.33091e-32
-6.45591e-32
-9.49905e-32
-1.1165e-31
-1.08972e-31
-9.60559e-32
-8.19888e-32
-9.1737e-32
-1.22059e-31
-1.63423e-31
-1.94072e-31
-1.92486e-31
-1.57645e-31
-9.81133e-32
-3.84915e-32
-5.1891e-34
4.99707e-33
-2.47947e-32
-7.70206e-32
-1.37835e-31
-1.93014e-31
-2.24739e-31
-2.2734e-31
-1.93495e-31
-1.29227e-31
-5.53592e-32
9.54463e-33
3.49555e-32
1.25123e-32
-5.05779e-32
-1.34658e-31
-1.99388e-31
-2.25777e-31
-2.02184e-31
-1.41839e-31
-7.90134e-32
-3.56116e-32
-3.47414e-32
-6.92297e-32
-1.16151e-31
-1.53166e-31
-1.53622e-31
-1.20658e-31
-6.97886e-32
-2.79997e-32
-2.51213e-32
-6.50964e-32
-1.36141e-31
-2.02913e-31
-2.29785e-31
-1.98812e-31
-1.18555e-31
-2.91369e-32
2.90108e-32
2.11529e-32
-4.52955e-32
-1.35203e-31
-2.0592e-31
-2.12768e-31
-1.6633e-31
-8.88175e-32
-2.60903e-32
-1.96294e-32
-5.55552e-32
-1.24388e-31
-1.73947e-31
-1.76072e-31
-1.39795e-31
-6.87997e-32
-1.9318e-32
-5.86167e-33
-3.4924e-32
-1.02286e-31
-1.58244e-31
-1.94695e-31
-1.87011e-31
-1.39958e-31
-8.46296e-32
-2.87273e-32
-5.75071e-33
-1.43538e-32
-4.59838e-32
-9.46264e-32
-1.32347e-31
-1.56712e-31
-1.60653e-31
-1.43227e-31
-1.16987e-31
-8.17979e-32
-4.84022e-32
-2.62882e-32
-1.94805e-32
-3.84539e-32
-7.79264e-32
-1.2406e-31
-1.60396e-31
-1.63223e-31
-1.2889e-31
-7.04459e-32
-1.28601e-32
8.59446e-33
-1.94382e-32
-8.67556e-32
-1.61493e-31
-1.98151e-31
-1.71502e-31
-8.8194e-32
1.5512e-32
8.31234e-32
7.42085e-32
-1.12419e-32
-1.39171e-31
-2.42646e-31
-2.66248e-31
-1.97801e-31
-6.00424e-32
7.55807e-32
1.45766e-31
1.22581e-31
1.10958e-32
-1.23301e-31
-2.21022e-31
-2.40112e-31
-1.68057e-31
-5.30549e-32
5.90373e-32
1.19683e-31
1.04639e-31
3.85111e-32
-4.9646e-32
-1.1472e-31
-1.28001e-31
-9.22564e-32
-2.45165e-32
4.09253e-32
7.50526e-32
6.84548e-32
3.5386e-32
9.0278e-36
-7.14414e-33
2.46609e-32
7.66069e-32
1.26713e-31
1.38896e-31
1.05702e-31
5.17233e-32
4.72455e-33
8.28752e-33
7.01685e-32
1.64539e-31
2.58833e-31
3.06241e-31
2.94439e-31
2.45911e-31
1.88278e-31
1.63614e-31
1.86303e-31
2.38711e-31
3.08269e-31
3.64282e-31
3.99931e-31
4.29253e-31
4.49547e-31
4.79039e-31
5.1079e-31
5.35133e-31
5.62292e-31
5.84476e-31
6.18142e-31
6.65058e-31
7.13898e-31
7.63744e-31
8.01336e-31
8.37649e-31
8.89121e-31
9.67602e-31
1.07486e-30
1.18725e-30
1.27368e-30
1.30978e-30
1.30322e-30
1.28589e-30
1.30953e-30
1.40915e-30
1.57835e-30
1.78367e-30
1.959e-30
2.06611e-30
2.10258e-30
2.10072e-30
2.12805e-30
2.2191e-30
2.38573e-30
2.59736e-30
2.7984e-30
2.96284e-30
3.07691e-30
3.17164e-30
3.28632e-30
3.43898e-30
3.63863e-30
3.85343e-30
4.05824e-30
4.241e-30
4.4013e-30
4.57311e-30
4.77417e-30
5.01582e-30
5.29204e-30
5.56802e-30
5.82989e-30
6.06327e-30
6.27993e-30
6.51509e-30
6.78338e-30
7.10723e-30
7.47074e-30
7.84199e-30
8.20127e-30
8.51638e-30
8.80524e-30
9.0928e-30
9.40965e-30
9.79816e-30
1.02463e-29
1.0741e-29
1.12389e-29
1.16873e-29
1.20714e-29
1.23942e-29
1.26588e-29
1.3084e-29
1.36191e-29
1.49816e-29
1.74083e-29
2.10283e-29
2.79102e-29
3.05996e-29
3.33941e-29
1.63307e-29
-2.64106e-29
-7.77723e-29
-1.83349e-28
-1.73969e-28
-1.13153e-28
1.74895e-28
8.19157e-28
1.18456e-27
1.82708e-27
1.06552e-27
-7.52301e-28
-3.02754e-27
-7.53388e-27
-7.20422e-27
-5.92183e-27
1.75759e-27
1.68857e-26
2.26773e-26
3.30582e-26
1.66577e-26
-1.36016e-26
-4.09978e-26
-9.04861e-26
-7.13129e-26
-4.21853e-26
3.15798e-26
1.54634e-25
1.62745e-25
1.92007e-25
5.43209e-26
-1.4559e-25
-2.41553e-25
-4.15701e-25
-2.36514e-25
-3.16335e-26
2.19164e-25
5.89205e-25
4.55166e-25
3.83044e-25
-3.70742e-26
-5.43992e-25
-5.80039e-25
-7.54242e-25
-2.54568e-25
2.23638e-25
5.06858e-25
9.15302e-25
5.06869e-25
2.23654e-25
-2.54555e-25
-7.54237e-25
-5.80045e-25
-5.44004e-25
-3.70882e-26
3.83035e-25
4.55164e-25
5.89209e-25
2.19171e-25
-3.16278e-26
-2.36512e-25
-4.15703e-25
-2.41558e-25
-1.45595e-25
5.43173e-26
1.92006e-25
1.62745e-25
1.54634e-25
3.15801e-26
-4.21856e-26
-7.13136e-26
-9.04868e-26
-4.09988e-26
-1.36024e-26
1.66568e-26
3.30572e-26
2.26764e-26
1.68848e-26
1.75685e-27
-5.92247e-27
-7.20477e-27
-7.53438e-27
-3.02807e-27
-7.52839e-28
1.06493e-27
1.82646e-27
1.18393e-27
8.1854e-28
1.74351e-28
-1.13616e-28
-1.74331e-28
-1.83643e-28
-7.80652e-29
-2.67475e-29
1.58885e-29
3.28699e-29
3.00434e-29
2.73956e-29
2.06419e-29
1.71588e-29
1.48525e-29
1.35378e-29
1.29624e-29
1.24528e-29
1.20777e-29
1.1679e-29
1.12792e-29
1.08695e-29
1.04693e-29
1.00879e-29
9.73906e-30
9.41524e-30
9.09287e-30
8.7509e-30
8.37496e-30
7.97405e-30
7.58366e-30
7.23072e-30
6.94185e-30
6.71019e-30
6.50625e-30
6.30418e-30
6.06801e-30
5.79984e-30
5.50728e-30
5.2107e-30
4.94161e-30
4.70594e-30
4.51733e-30
4.36436e-30
4.22717e-30
4.08866e-30
3.92174e-30
3.72166e-30
3.49833e-30
3.27427e-30
3.08368e-30
2.94902e-30
2.86399e-30
2.80993e-30
2.74363e-30
2.63003e-30
2.47012e-30
2.27057e-30
2.08256e-30
1.94226e-30
1.86015e-30
1.84085e-30
1.83243e-30
1.80405e-30
1.72832e-30
1.59215e-30
1.43505e-30
1.28254e-30
1.17621e-30
1.13768e-30
1.14877e-30
1.18533e-30
1.198e-30
1.1499e-30
1.03567e-30
8.75401e-31
7.19326e-31
6.22452e-31
6.09445e-31
6.72165e-31
7.63547e-31
8.18421e-31
7.97528e-31
6.91455e-31
5.38693e-31
3.96886e-31
3.13928e-31
3.10681e-31
3.64356e-31
4.37446e-31
4.8183e-31
4.77679e-31
4.25733e-31
3.44258e-31
2.69412e-31
2.12635e-31
1.93363e-31
2.01342e-31
2.21709e-31
2.46079e-31
2.453e-31
2.29841e-31
1.93094e-31
1.51715e-31
1.31448e-31
1.22597e-31
1.4284e-31
1.60267e-31
1.58757e-31
1.39716e-31
8.73725e-32
4.51905e-32
2.22176e-32
3.03402e-32
7.64384e-32
1.16511e-31
1.43385e-31
1.34898e-31
9.22005e-32
4.88765e-32
9.53937e-33
-4.76607e-33
-2.10348e-33
-2.57744e-33
-1.81083e-33
-6.54214e-33
4.01643e-33
4.321e-32
9.43503e-32
1.42871e-31
1.44325e-31
8.01202e-32
-2.86226e-32
-1.49773e-31
-2.09437e-31
-1.74297e-31
-5.30242e-32
1.1637e-31
2.37416e-31
2.59757e-31
1.6353e-31
-2.04875e-32
-1.91036e-31
-2.85223e-31
-2.4854e-31
-9.57443e-32
8.71566e-32
2.32692e-31
2.57941e-31
1.59604e-31
-5.80939e-33
-1.74557e-31
-2.50937e-31
-2.17615e-31
-9.69747e-32
5.80781e-32
1.58471e-31
1.80809e-31
1.17763e-31
6.57525e-33
-8.80902e-32
-1.46383e-31
-1.42901e-31
-9.87317e-32
-4.33786e-32
1.39305e-32
4.62193e-32
6.35707e-32
6.25686e-32
4.17853e-32
1.39585e-32
-2.73791e-32
-6.33031e-32
-8.92563e-32
-9.84605e-32
-8.48052e-32
-5.85844e-32
-1.92751e-32
1.80887e-32
5.04733e-32
6.57893e-32
5.78381e-32
3.0213e-32
-2.01602e-32
-6.61677e-32
-1.03179e-31
-1.12891e-31
-8.90366e-32
-5.34242e-32
-2.09595e-33
3.33257e-32
5.09047e-32
5.31316e-32
2.74355e-32
-1.18866e-34
-3.77452e-32
-7.1146e-32
-8.56377e-32
-8.88546e-32
-6.3023e-32
-2.60192e-32
1.31565e-32
4.47207e-32
4.79451e-32
3.21459e-32
-3.06343e-33
-4.18017e-32
-6.83542e-32
-7.94627e-32
-6.7554e-32
-4.14948e-32
-8.99592e-33
1.8835e-32
3.22142e-32
2.64975e-32
6.33751e-33
-1.83836e-32
-3.73299e-32
-3.74368e-32
-2.87592e-32
-1.4858e-32
-1.03265e-32
-2.31894e-32
-3.41115e-32
-4.08463e-32
-2.05653e-32
1.89676e-32
5.24635e-32
6.675e-32
3.23075e-32
-2.89279e-32
-9.10152e-32
-1.20977e-31
-8.86409e-32
-1.76132e-32
6.73444e-32
1.15938e-31
1.01908e-31
3.78475e-32
-5.14599e-32
-1.09905e-31
-1.15115e-31
-6.45788e-32
1.5819e-32
7.56424e-32
9.36769e-32
5.64432e-32
-9.4837e-33
-6.41786e-32
-8.45995e-32
-5.23552e-32
7.06802e-33
6.2683e-32
8.74859e-32
6.04065e-32
2.5244e-33
-6.15282e-32
-1.00809e-31
-8.96137e-32
-4.00423e-32
3.14935e-32
9.42141e-32
1.16784e-31
9.91846e-32
4.328e-32
-2.82465e-32
-8.42594e-32
-1.15191e-31
-1.0398e-31
-5.79028e-32
4.84981e-33
7.42213e-32
1.19588e-31
1.31884e-31
1.04722e-31
3.77873e-32
-4.02444e-32
-1.1053e-31
-1.41437e-31
-1.15878e-31
-4.43957e-32
5.43774e-32
1.3536e-31
1.65516e-31
1.3141e-31
4.29239e-32
-5.68616e-32
-1.25288e-31
-1.31118e-31
-7.08177e-32
2.34602e-32
1.08021e-31
1.43965e-31
1.13541e-31
3.77648e-32
-4.68151e-32
-9.94367e-32
-9.05307e-32
-3.32652e-32
4.91977e-32
1.14527e-31
1.2669e-31
9.25289e-32
1.85777e-32
-4.98612e-32
-7.83364e-32
-6.56426e-32
-3.29816e-33
6.17395e-32
1.04674e-31
1.1327e-31
7.09051e-32
1.97949e-32
-2.84581e-32
-5.07836e-32
-3.11474e-32
2.01922e-33
4.71657e-32
7.79671e-32
8.36049e-32
7.55341e-32
5.1191e-32
2.92435e-32
1.6223e-32
9.04886e-33
1.11431e-32
1.36453e-32
1.18986e-32
1.31318e-32
1.33047e-32
2.31749e-32
4.60696e-32
7.00595e-32
9.92967e-32
1.07946e-31
9.4062e-32
5.9026e-32
1.04779e-33
-4.25179e-32
-6.82434e-32
-5.32955e-32
2.97165e-34
6.45484e-32
1.27956e-31
1.51622e-31
1.36536e-31
8.48327e-32
2.12943e-32
-2.7613e-32
-4.80219e-32
-2.6626e-32
4.19793e-33
5.31075e-32
7.36352e-32
7.44086e-32
6.75279e-32
2.28497e-32
1.35913e-32
-1.87455e-32
-2.48167e-32
-4.76386e-33
)
;

boundaryField
{
    left
    {
        type            calculated;
        value           uniform 0;
    }
    right
    {
        type            calculated;
        value           uniform 0;
    }
    empty
    {
        type            empty;
        value           nonuniform List<scalar> 0();
    }
}


// ************************************************************************* //
