/*--------------------------------*- C++ -*----------------------------------*\
| =========                 |                                                 |
| \\      /  F ield         | OpenFOAM: The Open Source CFD Toolbox           |
|  \\    /   O peration     | Version:  2106                                  |
|   \\  /    A nd           | Website:  www.openfoam.com                      |
|    \\/     M anipulation  |                                                 |
\*---------------------------------------------------------------------------*/
FoamFile
{
    version     2.0;
    format      ascii;
    arch        "LSB;label=32;scalar=64";
    class       surfaceScalarField;
    location    "0.061";
    object      phi;
}
// * * * * * * * * * * * * * * * * * * * * * * * * * * * * * * * * * * * * * //

dimensions      [0 3 -1 0 0 0 0];

oriented        oriented;

internalField   nonuniform List<scalar> 
799
(
1.81963e-32
4.63833e-32
5.9931e-32
4.94392e-32
2.45511e-32
-4.19176e-32
-1.01132e-31
-1.46843e-31
-1.56731e-31
-1.18803e-31
-6.2847e-32
-4.16313e-34
3.82015e-32
4.80776e-32
2.6616e-32
-1.24976e-32
-6.32833e-32
-1.15545e-31
-1.55436e-31
-1.82984e-31
-1.74399e-31
-1.3785e-31
-7.62292e-32
-5.01344e-33
3.60149e-32
4.55434e-32
4.29761e-33
-6.59225e-32
-1.31825e-31
-1.84044e-31
-1.86532e-31
-1.58889e-31
-1.12233e-31
-5.68762e-32
-3.16941e-32
-2.03364e-32
-3.72691e-32
-7.4917e-32
-1.04558e-31
-1.41031e-31
-1.49788e-31
-1.3711e-31
-1.13456e-31
-6.65604e-32
-4.1141e-32
-3.06644e-32
-4.64036e-32
-9.51977e-32
-1.34993e-31
-1.71129e-31
-1.72913e-31
-1.38928e-31
-9.56085e-32
-4.11667e-32
-1.66153e-32
-2.26343e-32
-5.56007e-32
-1.14557e-31
-1.59831e-31
-1.84855e-31
-1.71566e-31
-1.18296e-31
-5.60752e-32
-1.02954e-33
1.18926e-32
-2.87407e-32
-1.02432e-31
-1.85846e-31
-2.31172e-31
-2.13556e-31
-1.42072e-31
-4.02196e-32
3.63309e-32
5.29751e-32
6.02004e-33
-8.76262e-32
-1.73999e-31
-2.18488e-31
-2.06825e-31
-1.47418e-31
-8.10106e-32
-3.18365e-32
-1.63001e-32
-3.11309e-32
-5.50723e-32
-8.08379e-32
-1.00236e-31
-1.18193e-31
-1.38318e-31
-1.50402e-31
-1.48257e-31
-1.16958e-31
-6.4228e-32
-1.06573e-32
2.21617e-32
3.42454e-33
-5.50165e-32
-1.36645e-31
-2.05861e-31
-2.19081e-31
-1.83663e-31
-9.77515e-32
-6.78589e-33
4.65879e-32
5.57587e-32
-2.05326e-33
-8.11874e-32
-1.54838e-31
-1.98634e-31
-1.81505e-31
-1.37545e-31
-7.4668e-32
-2.79094e-32
-1.92142e-32
-3.05459e-32
-6.10625e-32
-7.78076e-32
-7.52141e-32
-6.23822e-32
-4.84002e-32
-5.8233e-32
-8.86407e-32
-1.30089e-31
-1.60824e-31
-1.59324e-31
-1.2457e-31
-6.51198e-32
-5.5852e-33
3.23001e-32
3.77324e-32
7.85606e-33
-4.44544e-32
-1.05352e-31
-1.60614e-31
-1.92424e-31
-1.95111e-31
-1.61349e-31
-9.71627e-32
-2.33757e-32
4.14466e-32
6.67765e-32
4.42529e-32
-1.89159e-32
-1.03076e-31
-1.67885e-31
-1.94351e-31
-1.7083e-31
-1.10563e-31
-4.78182e-32
-4.49885e-33
-3.70747e-33
-3.82718e-32
-8.52757e-32
-1.22369e-31
-1.22901e-31
-9.00101e-32
-3.92122e-32
2.5022e-33
5.30834e-33
-3.47375e-32
-1.05856e-31
-1.72704e-31
-1.99653e-31
-1.68755e-31
-8.8574e-32
7.70372e-34
5.88387e-32
5.09047e-32
-1.56241e-32
-1.05609e-31
-1.76401e-31
-1.83328e-31
-1.36972e-31
-5.95385e-32
3.10255e-33
9.47618e-33
-2.65361e-32
-9.54584e-32
-1.45114e-31
-1.47335e-31
-1.11156e-31
-4.02604e-32
9.11807e-33
2.24651e-32
-6.71066e-33
-7.41889e-32
-1.30267e-31
-1.66843e-31
-1.59288e-31
-1.12369e-31
-5.71851e-32
-1.42964e-33
2.13944e-32
1.26295e-32
-1.91743e-32
-6.79989e-32
-1.05911e-31
-1.30479e-31
-1.34636e-31
-1.17438e-31
-9.1438e-32
-5.6505e-32
-2.33844e-32
-1.56181e-33
4.93219e-33
-1.43732e-32
-5.42023e-32
-1.00714e-31
-1.37455e-31
-1.40713e-31
-1.06838e-31
-4.88785e-32
8.18821e-33
2.90815e-32
4.53647e-34
-6.74993e-32
-1.42918e-31
-1.80314e-31
-1.54447e-31
-7.19771e-32
3.08337e-32
9.74912e-32
8.75516e-32
9.95315e-34
-1.2811e-31
-2.32845e-31
-2.57786e-31
-1.90768e-31
-5.45317e-32
7.94627e-32
1.4791e-31
1.22872e-31
9.40913e-33
-1.27098e-31
-2.27069e-31
-2.48556e-31
-1.79053e-31
-6.67651e-32
4.24382e-32
1.00008e-31
8.16929e-32
1.20897e-32
-7.97615e-32
-1.48758e-31
-1.66206e-31
-1.34883e-31
-7.18267e-32
-1.13525e-32
1.75049e-32
5.33242e-33
-3.36376e-32
-7.52587e-32
-8.90154e-32
-6.41997e-32
-1.96355e-32
2.26759e-32
2.6632e-32
-1.52419e-32
-7.83778e-32
-1.35036e-31
-1.41641e-31
-9.04721e-32
-7.37872e-33
7.50538e-32
1.09986e-31
8.50719e-32
2.27688e-32
-4.93339e-32
-8.91796e-32
-8.24102e-32
-4.66978e-32
5.36552e-33
4.30505e-32
5.95135e-32
6.87563e-32
6.80521e-32
7.5598e-32
8.44189e-32
8.48161e-32
8.69844e-32
8.30967e-32
8.95783e-32
1.08168e-31
1.27501e-31
1.46634e-31
1.52265e-31
1.55338e-31
1.72258e-31
2.14843e-31
2.84829e-31
3.58545e-31
4.04847e-31
3.9936e-31
3.49704e-31
2.87751e-31
2.652e-31
3.17034e-31
4.36828e-31
5.91096e-31
7.13686e-31
7.6637e-31
7.4668e-31
6.86904e-31
6.54554e-31
6.84137e-31
7.87486e-31
9.34004e-31
1.06809e-30
1.16372e-30
1.20712e-30
1.22928e-30
1.26951e-30
1.34584e-30
1.46725e-30
1.60192e-30
1.7247e-30
1.82353e-30
1.89803e-30
1.98215e-30
2.09366e-30
2.2439e-30
2.42688e-30
2.60781e-30
2.77284e-30
2.90761e-30
3.02392e-30
3.15704e-30
3.3216e-30
3.54011e-30
3.79669e-30
4.05946e-30
4.30877e-30
4.51246e-30
4.68852e-30
4.86195e-30
5.0634e-30
5.33529e-30
5.66565e-30
6.04161e-30
6.41968e-30
6.74733e-30
7.00992e-30
7.21036e-30
7.35202e-30
7.65364e-30
8.06466e-30
9.30275e-30
1.16047e-29
1.50997e-29
2.18566e-29
2.4421e-29
2.70905e-29
9.90238e-30
-3.29633e-29
-8.4449e-29
-1.90149e-28
-1.80892e-28
-1.20198e-28
1.67728e-28
8.11871e-28
1.17715e-27
1.81956e-27
1.05788e-27
-7.60055e-28
-3.03541e-27
-7.54186e-27
-7.21231e-27
-5.93003e-27
1.74928e-27
1.68773e-26
2.26688e-26
3.30496e-26
1.6649e-26
-1.36104e-26
-4.10067e-26
-9.04951e-26
-7.1322e-26
-4.21944e-26
3.15705e-26
1.54625e-25
1.62736e-25
1.91998e-25
5.43114e-26
-1.456e-25
-2.41562e-25
-4.15711e-25
-2.36524e-25
-3.16433e-26
2.19154e-25
5.89195e-25
4.55156e-25
3.83034e-25
-3.70842e-26
-5.44002e-25
-5.80049e-25
-7.54252e-25
-2.54578e-25
2.23628e-25
5.06848e-25
9.15292e-25
5.06858e-25
2.23644e-25
-2.54565e-25
-7.54247e-25
-5.80055e-25
-5.44014e-25
-3.70982e-26
3.83025e-25
4.55155e-25
5.892e-25
2.19162e-25
-3.16375e-26
-2.36522e-25
-4.15713e-25
-2.41567e-25
-1.45605e-25
5.43078e-26
1.91996e-25
1.62736e-25
1.54625e-25
3.15709e-26
-4.21946e-26
-7.13226e-26
-9.04957e-26
-4.10076e-26
-1.36111e-26
1.66482e-26
3.30487e-26
2.2668e-26
1.68764e-26
1.74864e-27
-5.93058e-27
-7.21278e-27
-7.54227e-27
-3.03584e-27
-7.60503e-28
1.05738e-27
1.81903e-27
1.17661e-27
8.11347e-28
1.67278e-28
-1.20567e-28
-1.8116e-28
-1.9035e-28
-8.46487e-29
-3.32073e-29
9.55272e-30
2.66583e-29
2.39561e-29
2.14326e-29
1.48032e-29
1.14441e-29
9.26162e-30
8.07034e-30
7.61778e-30
7.23057e-30
6.97713e-30
6.6994e-30
6.41972e-30
6.12924e-30
5.84735e-30
5.5831e-30
5.35041e-30
5.1415e-30
4.93281e-30
4.70321e-30
4.43827e-30
4.14694e-30
3.86466e-30
3.61831e-30
3.43447e-30
3.30623e-30
3.20407e-30
3.10209e-30
2.96431e-30
2.79278e-30
2.5951e-30
2.39161e-30
2.21379e-30
2.06757e-30
1.96656e-30
1.89934e-30
1.84603e-30
1.78953e-30
1.70276e-30
1.58095e-30
1.43401e-30
1.28446e-30
1.16653e-30
1.10266e-30
1.08657e-30
1.09961e-30
1.09858e-30
1.04845e-30
9.50196e-31
8.10533e-31
6.80651e-31
5.96753e-31
5.69323e-31
6.03019e-31
6.45923e-31
6.67231e-31
6.39567e-31
5.49893e-31
4.37725e-31
3.28632e-31
2.6421e-31
2.66133e-31
3.16234e-31
3.90407e-31
4.39318e-31
4.26123e-31
3.45488e-31
2.17543e-31
9.25445e-32
2.55396e-32
4.12299e-32
1.31494e-31
2.49311e-31
3.29545e-31
3.32963e-31
2.50182e-31
1.19731e-31
-7.16205e-34
-6.32412e-32
-4.6946e-32
2.54132e-32
1.16356e-31
1.77784e-31
1.89909e-31
1.53485e-31
8.68173e-32
2.60798e-32
-1.72563e-32
-2.37318e-32
-3.5688e-33
2.83924e-32
6.37855e-32
7.34878e-32
6.79831e-32
4.06898e-32
8.28187e-33
-3.47382e-33
-4.25284e-33
2.36393e-32
4.83177e-32
5.36748e-32
4.11389e-32
-5.05256e-33
-4.14186e-32
-5.88941e-32
-4.55746e-32
5.43172e-33
5.01458e-32
8.13975e-32
7.70387e-32
3.82372e-32
-1.41435e-33
-3.72893e-32
-4.83372e-32
-4.26052e-32
-4.01895e-32
-3.6698e-32
-3.88692e-32
-2.59057e-32
1.55506e-32
6.88147e-32
1.19332e-31
1.22659e-31
6.02124e-32
-4.68798e-32
-1.66479e-31
-2.24691e-31
-1.88187e-31
-6.56306e-32
1.04965e-31
2.27138e-31
2.50529e-31
1.55281e-31
-2.7818e-32
-1.97508e-31
-2.90891e-31
-2.53458e-31
-9.99603e-32
8.35933e-32
2.29738e-31
2.55559e-31
1.57753e-31
-7.16732e-33
-1.75451e-31
-2.51403e-31
-2.17681e-31
-9.6664e-32
5.8736e-32
1.59458e-31
1.82097e-31
1.19334e-31
8.41391e-33
-8.60078e-32
-1.44075e-31
-1.40383e-31
-9.60136e-32
-4.04799e-32
1.69999e-32
4.94407e-32
6.69351e-32
6.60654e-32
4.54061e-32
1.76937e-32
-2.35407e-32
-5.93682e-32
-8.52314e-32
-9.43578e-32
-8.06333e-32
-5.43473e-32
-1.49801e-32
2.24326e-32
5.48634e-32
7.02212e-32
6.23008e-32
3.47089e-32
-1.56378e-32
-6.1626e-32
-9.86223e-32
-1.08322e-31
-8.44543e-32
-4.88283e-32
2.50371e-33
3.79263e-32
5.55044e-32
5.77237e-32
3.20186e-32
4.44769e-33
-3.31982e-32
-6.66243e-32
-8.11433e-32
-8.43888e-32
-5.85859e-32
-2.16122e-32
1.7529e-32
4.90601e-32
5.22491e-32
3.64095e-32
1.15405e-33
-3.76399e-32
-6.42495e-32
-7.54107e-32
-6.35607e-32
-3.75601e-32
-5.11998e-33
2.26447e-32
3.59562e-32
3.01701e-32
9.93659e-33
-1.48537e-32
-3.38708e-32
-3.40498e-32
-2.54454e-32
-1.16224e-32
-7.17052e-33
-2.01154e-32
-3.11218e-32
-3.79393e-32
-1.77456e-32
2.17109e-32
5.51252e-32
6.93305e-32
3.48052e-32
-2.65169e-32
-8.86936e-32
-1.18743e-31
-8.64976e-32
-1.55639e-32
6.93004e-32
1.17798e-31
1.03668e-31
3.95086e-32
-4.99011e-32
-1.08455e-31
-1.13771e-31
-6.33405e-32
1.69519e-32
7.66656e-32
9.45963e-32
5.72551e-32
-8.77803e-33
-6.35828e-32
-8.41162e-32
-5.19866e-32
7.32561e-33
6.28305e-32
8.75214e-32
6.0332e-32
2.33669e-33
-6.18316e-32
-1.01234e-31
-9.01599e-32
-4.07043e-32
3.07126e-32
9.33173e-32
1.15768e-31
9.80517e-32
4.20304e-32
-2.96164e-32
-8.57535e-32
-1.16805e-31
-1.05717e-31
-5.9758e-32
2.88057e-33
7.21359e-32
1.17382e-31
1.29558e-31
1.02276e-31
3.5225e-32
-4.29196e-32
-1.13325e-31
-1.44353e-31
-1.18913e-31
-4.75524e-32
5.11094e-32
1.3198e-31
1.62022e-31
1.27808e-31
3.92149e-32
-6.06758e-32
-1.29203e-31
-1.35139e-31
-7.49363e-32
1.92452e-32
1.0371e-31
1.39561e-31
1.09045e-31
3.31847e-32
-5.1481e-32
-1.04182e-31
-9.53591e-32
-3.8171e-32
4.42166e-32
1.09477e-31
1.2158e-31
8.7356e-32
1.33483e-32
-5.51431e-32
-8.36651e-32
-7.10187e-32
-8.70881e-33
5.62963e-32
9.92034e-32
1.07778e-31
6.53951e-32
1.42714e-32
-3.39951e-32
-5.63327e-32
-3.66935e-32
-3.52009e-33
4.16377e-32
7.24556e-32
7.81138e-32
7.00692e-32
4.57566e-32
2.38481e-32
1.0871e-32
3.74503e-33
5.90004e-33
8.46817e-33
6.78966e-33
8.09666e-33
8.35071e-33
1.83059e-32
4.12901e-32
6.53786e-32
9.47166e-32
1.03471e-31
8.96976e-32
5.47769e-32
-3.08092e-33
-4.65157e-32
-7.21073e-32
-5.70174e-32
-3.2816e-33
6.11189e-32
1.24679e-31
1.48497e-31
1.33575e-31
8.20401e-32
1.86687e-32
-3.00673e-32
-5.03044e-32
-2.87347e-32
2.26673e-33
5.13531e-32
7.20659e-32
7.30304e-32
6.63423e-32
2.18602e-32
1.27984e-32
-1.93413e-32
-2.5215e-32
-4.96007e-33
)
;

boundaryField
{
    left
    {
        type            calculated;
        value           uniform 0;
    }
    right
    {
        type            calculated;
        value           uniform 0;
    }
    empty
    {
        type            empty;
        value           nonuniform List<scalar> 0();
    }
}


// ************************************************************************* //
